! AWR Design Environment (7670) Fri Mar 18 14:43:33 2016
! Document = 'RL'
! nPorts: 1, nXvals: 1000

# HZ S DB R 50
!Freq DBS11 AngS11 
1000000 -6.1297587 28.760325 
2000000 -3.2085471 28.348154 
3000000 -1.8352398 23.655836 
4000000 -1.1546875 19.578338 
5000000 -0.78324909 16.479773 
6000000 -0.562534 14.141988 
7000000 -0.42209122 12.346092 
8000000 -0.32772476 10.93529 
9000000 -0.26148548 9.8031327 
10000000 -0.21330649 8.8771764 
11000000 -0.17721935 8.1072269 
12000000 -0.1495165 7.4577363 
13000000 -0.12780204 6.902973 
14000000 -0.11047453 6.4239236 
15000000 -0.096431948 6.0062724 
16000000 -0.084896521 5.6390552 
17000000 -0.075307001 5.3137444 
18000000 -0.067250374 5.0236147 
19000000 -0.060417373 4.7632954 
20000000 -0.05457278 4.5284479 
21000000 -0.049535173 4.315531 
22000000 -0.045162841 4.1216273 
23000000 -0.04134381 3.9443118 
24000000 -0.037988668 3.7815534 
25000000 -0.035025335 3.6316377 
26000000 -0.032395185 3.4931086 
27000000 -0.030050145 3.3647209 
28000000 -0.0279505 3.2454044 
29000000 -0.026063208 3.1342334 
30000000 -0.024360601 3.0304039 
31000000 -0.022819369 2.9332139 
32000000 -0.021419765 2.842048 
33000000 -0.020144968 2.7563644 
34000000 -0.018980582 2.6756841 
35000000 -0.017914225 2.5995823 
36000000 -0.016935202 2.5276808 
37000000 -0.016034238 2.4596419 
38000000 -0.015203255 2.3951631 
39000000 -0.014435194 2.3339725 
40000000 -0.013723863 2.2758254 
41000000 -0.013063812 2.2205004 
42000000 -0.012450232 2.1677975 
43000000 -0.011878863 2.1175346 
44000000 -0.011345921 2.0695465 
45000000 -0.010848039 2.0236824 
46000000 -0.010382208 1.9798045 
47000000 -0.0099457375 1.9377865 
48000000 -0.0095362109 1.897513 
49000000 -0.0091514567 1.8588775 
50000000 -0.0087895171 1.8217823 
51000000 -0.0084486242 1.786137 
52000000 -0.0081271779 1.7518585 
53000000 -0.007823727 1.7188697 
54000000 -0.0075369536 1.6870992 
55000000 -0.007265658 1.6564807 
56000000 -0.0070087463 1.6269529 
57000000 -0.0067652199 1.5984584 
58000000 -0.0065341649 1.5709441 
59000000 -0.0063147443 1.5443602 
60000000 -0.0061061903 1.5186604 
61000000 -0.0059077971 1.4938013 
62000000 -0.0057189154 1.4697424 
63000000 -0.005538947 1.4464456 
64000000 -0.0053673398 1.4238754 
65000000 -0.0052035839 1.4019983 
66000000 -0.0050472078 1.3807828 
67000000 -0.0048977746 1.3601995 
68000000 -0.0047548794 1.3402204 
69000000 -0.0046181464 1.3208195 
70000000 -0.0044872264 1.3019719 
71000000 -0.0043617946 1.2836544 
72000000 -0.0042415485 1.2658448 
73000000 -0.0041262061 1.2485225 
74000000 -0.0040155045 1.2316675 
75000000 -0.0039091981 1.2152614 
76000000 -0.0038070572 1.1992864 
77000000 -0.0037088672 1.1837258 
78000000 -0.0036144268 1.1685636 
79000000 -0.0035235475 1.1537847 
80000000 -0.0034360527 1.1393748 
81000000 -0.0033517762 1.1253203 
82000000 -0.0032705623 1.1116082 
83000000 -0.0031922643 1.098226 
84000000 -0.0031167443 1.0851621 
85000000 -0.0030438725 1.0724053 
86000000 -0.0029735264 1.0599447 
87000000 -0.0029055907 1.0477703 
88000000 -0.0028399566 1.0358724 
89000000 -0.0027765213 1.0242414 
90000000 -0.0027151875 1.0128687 
91000000 -0.0026558637 1.0017457 
92000000 -0.0025984627 0.99086427 
93000000 -0.0025429026 0.98021661 
94000000 -0.0024891053 0.96979529 
95000000 -0.0024369972 0.95959315 
96000000 -0.0023865082 0.94960337 
97000000 -0.002337572 0.93981938 
98000000 -0.0022901254 0.9302349 
99000000 -0.0022441088 0.92084387 
1e+008 -0.0021994652 0.91164051 
1.01e+008 -0.0021561405 0.90261924 
1.02e+008 -0.0021140832 0.89377472 
1.03e+008 -0.0020732445 0.88510181 
1.04e+008 -0.0020335778 0.87659555 
1.05e+008 -0.0019950385 0.8682512 
1.06e+008 -0.0019575843 0.86006417 
1.07e+008 -0.001921175 0.85203005 
1.08e+008 -0.001885772 0.84414461 
1.09e+008 -0.0018513386 0.83640376 
1.1e+008 -0.0018178397 0.82880355 
1.11e+008 -0.0017852417 0.82134019 
1.12e+008 -0.0017535127 0.81401002 
1.13e+008 -0.0017226221 0.8068095 
1.14e+008 -0.0016925405 0.79973523 
1.15e+008 -0.00166324 0.79278391 
1.16e+008 -0.0016346938 0.78595236 
1.17e+008 -0.0016068762 0.77923752 
1.18e+008 -0.0015797625 0.77263643 
1.19e+008 -0.0015533294 0.76614621 
1.2e+008 -0.0015275541 0.7597641 
1.21e+008 -0.001502415 0.75348742 
1.22e+008 -0.0014778914 0.74731358 
1.23e+008 -0.0014539634 0.74124007 
1.24e+008 -0.0014306117 0.73526447 
1.25e+008 -0.0014078181 0.72938443 
1.26e+008 -0.0013855649 0.72359768 
1.27e+008 -0.0013638352 0.717902 
1.28e+008 -0.0013426126 0.71229528 
1.29e+008 -0.0013218815 0.70677544 
1.3e+008 -0.0013016269 0.70134047 
1.31e+008 -0.0012818342 0.69598845 
1.32e+008 -0.0012624896 0.69071748 
1.33e+008 -0.0012435795 0.68552573 
1.34e+008 -0.0012250911 0.68041143 
1.35e+008 -0.001207012 0.67537287 
1.36e+008 -0.0011893301 0.67040837 
1.37e+008 -0.0011720339 0.66551632 
1.38e+008 -0.0011551123 0.66069513 
1.39e+008 -0.0011385545 0.65594328 
1.4e+008 -0.0011223501 0.65125929 
1.41e+008 -0.0011064892 0.64664171 
1.42e+008 -0.0010909622 0.64208914 
1.43e+008 -0.0010757597 0.63760021 
1.44e+008 -0.0010608727 0.63317361 
1.45e+008 -0.0010462926 0.62880804 
1.46e+008 -0.0010320111 0.62450225 
1.47e+008 -0.0010180199 0.62025501 
1.48e+008 -0.0010043113 0.61606516 
1.49e+008 -0.00099087781 0.61193152 
1.5e+008 -0.00097771199 0.60785297 
1.51e+008 -0.00096480684 0.60382843 
1.52e+008 -0.0009521555 0.59985682 
1.53e+008 -0.00093975138 0.59593711 
1.54e+008 -0.00092758807 0.59206828 
1.55e+008 -0.00091565937 0.58824936 
1.56e+008 -0.00090395929 0.58447939 
1.57e+008 -0.00089248204 0.58075742 
1.58e+008 -0.00088122197 0.57708255 
1.59e+008 -0.00087017366 0.57345389 
1.6e+008 -0.00085933182 0.56987057 
1.61e+008 -0.00084869134 0.56633176 
1.62e+008 -0.00083824727 0.56283662 
1.63e+008 -0.0008279948 0.55938435 
1.64e+008 -0.00081792927 0.55597416 
1.65e+008 -0.00080804617 0.5526053 
1.66e+008 -0.00079834111 0.54927702 
1.67e+008 -0.00078880985 0.54598859 
1.68e+008 -0.00077944826 0.54273929 
1.69e+008 -0.00077025233 0.53952843 
1.7e+008 -0.00076121818 0.53635534 
1.71e+008 -0.00075234203 0.53321935 
1.72e+008 -0.00074362023 0.53011981 
1.73e+008 -0.00073504922 0.5270561 
1.74e+008 -0.00072662554 0.52402759 
1.75e+008 -0.00071834583 0.52103369 
1.76e+008 -0.00071020683 0.51807379 
1.77e+008 -0.00070220537 0.51514734 
1.78e+008 -0.00069433837 0.51225375 
1.79e+008 -0.00068660284 0.50939249 
1.8e+008 -0.00067899585 0.50656302 
1.81e+008 -0.00067151458 0.5037648 
1.82e+008 -0.00066415628 0.50099732 
1.83e+008 -0.00065691826 0.49826008 
1.84e+008 -0.00064979791 0.49555258 
1.85e+008 -0.0006427927 0.49287435 
1.86e+008 -0.00063590016 0.49022491 
1.87e+008 -0.00062911789 0.4876038 
1.88e+008 -0.00062244355 0.48501056 
1.89e+008 -0.00061587485 0.48244477 
1.9e+008 -0.00060940958 0.47990597 
1.91e+008 -0.00060304559 0.47739375 
1.92e+008 -0.00059678076 0.4749077 
1.93e+008 -0.00059061305 0.4724474 
1.94e+008 -0.00058454046 0.47001246 
1.95e+008 -0.00057856104 0.46760249 
1.96e+008 -0.0005726729 0.4652171 
1.97e+008 -0.00056687419 0.46285593 
1.98e+008 -0.00056116311 0.4605186 
1.99e+008 -0.0005555379 0.45820476 
2e+008 -0.00054999685 0.45591405 
2.01e+008 -0.00054453829 0.45364613 
2.02e+008 -0.00053916058 0.45140066 
2.03e+008 -0.00053386215 0.44917731 
2.04e+008 -0.00052864143 0.44697575 
2.05e+008 -0.00052349692 0.44479567 
2.06e+008 -0.00051842714 0.44263674 
2.07e+008 -0.00051343065 0.44049868 
2.08e+008 -0.00050850604 0.43838116 
2.09e+008 -0.00050365195 0.43628391 
2.1e+008 -0.00049886703 0.43420663 
2.11e+008 -0.00049414997 0.43214903 
2.12e+008 -0.0004894995 0.43011084 
2.13e+008 -0.00048491437 0.42809178 
2.14e+008 -0.00048039336 0.4260916 
2.15e+008 -0.00047593529 0.42411001 
2.16e+008 -0.00047153898 0.42214677 
2.17e+008 -0.0004672033 0.42020162 
2.18e+008 -0.00046292715 0.41827431 
2.19e+008 -0.00045870943 0.4163646 
2.2e+008 -0.0004545491 0.41447225 
2.21e+008 -0.0004504451 0.41259702 
2.22e+008 -0.00044639644 0.41073869 
2.23e+008 -0.00044240211 0.40889701 
2.24e+008 -0.00043846116 0.40707178 
2.25e+008 -0.00043457263 0.40526277 
2.26e+008 -0.0004307356 0.40346976 
2.27e+008 -0.00042694917 0.40169255 
2.28e+008 -0.00042321244 0.39993093 
2.29e+008 -0.00041952455 0.39818469 
2.3e+008 -0.00041588466 0.39645363 
2.31e+008 -0.00041229194 0.39473756 
2.32e+008 -0.00040874556 0.39303628 
2.33e+008 -0.00040524475 0.3913496 
2.34e+008 -0.00040178872 0.38967733 
2.35e+008 -0.00039837672 0.3880193 
2.36e+008 -0.00039500799 0.38637531 
2.37e+008 -0.00039168181 0.38474519 
2.38e+008 -0.00038839746 0.38312877 
2.39e+008 -0.00038515425 0.38152588 
2.4e+008 -0.0003819515 0.37993634 
2.41e+008 -0.00037878852 0.37835999 
2.42e+008 -0.00037566468 0.37679666 
2.43e+008 -0.00037257931 0.3752462 
2.44e+008 -0.0003695318 0.37370845 
2.45e+008 -0.00036652153 0.37218325 
2.46e+008 -0.00036354789 0.37067045 
2.47e+008 -0.0003606103 0.36916989 
2.48e+008 -0.00035770816 0.36768144 
2.49e+008 -0.00035484092 0.36620494 
2.5e+008 -0.00035200801 0.36474025 
2.51e+008 -0.0003492089 0.36328723 
2.52e+008 -0.00034644304 0.36184573 
2.53e+008 -0.0003437099 0.36041564 
2.54e+008 -0.00034100899 0.3589968 
2.55e+008 -0.00033833978 0.35758909 
2.56e+008 -0.00033570179 0.35619237 
2.57e+008 -0.00033309453 0.35480652 
2.58e+008 -0.00033051753 0.35343142 
2.59e+008 -0.00032797032 0.35206693 
2.6e+008 -0.00032545244 0.35071294 
2.61e+008 -0.00032296345 0.34936932 
2.62e+008 -0.00032050289 0.34803595 
2.63e+008 -0.00031807036 0.34671273 
2.64e+008 -0.0003156654 0.34539953 
2.65e+008 -0.00031328763 0.34409623 
2.66e+008 -0.00031093661 0.34280274 
2.67e+008 -0.00030861196 0.34151893 
2.68e+008 -0.00030631329 0.34024471 
2.69e+008 -0.0003040402 0.33897995 
2.7e+008 -0.00030179232 0.33772457 
2.71e+008 -0.00029956927 0.33647844 
2.72e+008 -0.0002973707 0.33524148 
2.73e+008 -0.00029519624 0.33401358 
2.74e+008 -0.00029304555 0.33279464 
2.75e+008 -0.00029091827 0.33158457 
2.76e+008 -0.00028881408 0.33038326 
2.77e+008 -0.00028673263 0.32919063 
2.78e+008 -0.0002846736 0.32800657 
2.79e+008 -0.00028263666 0.32683101 
2.8e+008 -0.00028062152 0.32566383 
2.81e+008 -0.00027862785 0.32450497 
2.82e+008 -0.00027665534 0.32335432 
2.83e+008 -0.00027470371 0.32221181 
2.84e+008 -0.00027277266 0.32107733 
2.85e+008 -0.0002708619 0.31995082 
2.86e+008 -0.00026897115 0.31883219 
2.87e+008 -0.00026710012 0.31772135 
2.88e+008 -0.00026524855 0.31661822 
2.89e+008 -0.00026341616 0.31552273 
2.9e+008 -0.0002616027 0.31443479 
2.91e+008 -0.0002598079 0.31335433 
2.92e+008 -0.00025803151 0.31228127 
2.93e+008 -0.00025627327 0.31121553 
2.94e+008 -0.00025453294 0.31015704 
2.95e+008 -0.00025281028 0.30910573 
2.96e+008 -0.00025110505 0.30806152 
2.97e+008 -0.00024941702 0.30702434 
2.98e+008 -0.00024774595 0.30599412 
2.99e+008 -0.00024609161 0.30497079 
3e+008 -0.00024445379 0.30395428 
3.01e+008 -0.00024283227 0.30294453 
3.02e+008 -0.00024122683 0.30194146 
3.03e+008 -0.00023963725 0.30094502 
3.04e+008 -0.00023806334 0.29995512 
3.05e+008 -0.00023650488 0.29897172 
3.06e+008 -0.00023496168 0.29799475 
3.07e+008 -0.00023343353 0.29702414 
3.08e+008 -0.00023192023 0.29605983 
3.09e+008 -0.00023042161 0.29510176 
3.1e+008 -0.00022893747 0.29414988 
3.11e+008 -0.00022746762 0.29320411 
3.12e+008 -0.00022601187 0.29226441 
3.13e+008 -0.00022457006 0.29133071 
3.14e+008 -0.000223142 0.29040295 
3.15e+008 -0.00022172752 0.28948109 
3.16e+008 -0.00022032645 0.28856506 
3.17e+008 -0.00021893861 0.28765481 
3.18e+008 -0.00021756385 0.28675029 
3.19e+008 -0.00021620199 0.28585143 
3.2e+008 -0.00021485288 0.28495819 
3.21e+008 -0.00021351636 0.28407052 
3.22e+008 -0.00021219227 0.28318836 
3.23e+008 -0.00021088046 0.28231166 
3.24e+008 -0.00020958078 0.28144038 
3.25e+008 -0.00020829307 0.28057445 
3.26e+008 -0.0002070172 0.27971384 
3.27e+008 -0.00020575301 0.27885849 
3.28e+008 -0.00020450037 0.27800835 
3.29e+008 -0.00020325913 0.27716338 
3.3e+008 -0.00020202916 0.27632354 
3.31e+008 -0.00020081032 0.27548877 
3.32e+008 -0.00019960248 0.27465902 
3.33e+008 -0.0001984055 0.27383426 
3.34e+008 -0.00019721925 0.27301444 
3.35e+008 -0.00019604362 0.27219951 
3.36e+008 -0.00019487846 0.27138943 
3.37e+008 -0.00019372366 0.27058416 
3.38e+008 -0.00019257909 0.26978365 
3.39e+008 -0.00019144464 0.26898787 
3.4e+008 -0.00019032018 0.26819677 
3.41e+008 -0.0001892056 0.2674103 
3.42e+008 -0.00018810078 0.26662844 
3.43e+008 -0.00018700561 0.26585113 
3.44e+008 -0.00018591998 0.26507835 
3.45e+008 -0.00018484377 0.26431004 
3.46e+008 -0.00018377689 0.26354617 
3.47e+008 -0.00018271921 0.26278671 
3.48e+008 -0.00018167063 0.26203161 
3.49e+008 -0.00018063106 0.26128083 
3.5e+008 -0.00017960038 0.26053435 
3.51e+008 -0.0001785785 0.25979212 
3.52e+008 -0.00017756532 0.25905411 
3.53e+008 -0.00017656073 0.25832028 
3.54e+008 -0.00017556465 0.25759059 
3.55e+008 -0.00017457697 0.25686501 
3.56e+008 -0.0001735976 0.25614351 
3.57e+008 -0.00017262645 0.25542606 
3.58e+008 -0.00017166343 0.25471261 
3.59e+008 -0.00017070844 0.25400313 
3.6e+008 -0.0001697614 0.2532976 
3.61e+008 -0.00016882222 0.25259597 
3.62e+008 -0.00016789081 0.25189822 
3.63e+008 -0.00016696709 0.25120431 
3.64e+008 -0.00016605097 0.25051422 
3.65e+008 -0.00016514237 0.24982791 
3.66e+008 -0.00016424121 0.24914535 
3.67e+008 -0.0001633474 0.24846651 
3.68e+008 -0.00016246087 0.24779135 
3.69e+008 -0.00016158154 0.24711986 
3.7e+008 -0.00016070933 0.24645199 
3.71e+008 -0.00015984416 0.24578773 
3.72e+008 -0.00015898595 0.24512704 
3.73e+008 -0.00015813464 0.24446988 
3.74e+008 -0.00015729015 0.24381625 
3.75e+008 -0.00015645241 0.2431661 
3.76e+008 -0.00015562134 0.2425194 
3.77e+008 -0.00015479688 0.24187614 
3.78e+008 -0.00015397895 0.24123628 
3.79e+008 -0.00015316748 0.2405998 
3.8e+008 -0.00015236242 0.23996666 
3.81e+008 -0.00015156368 0.23933685 
3.82e+008 -0.00015077121 0.23871034 
3.83e+008 -0.00014998494 0.2380871 
3.84e+008 -0.0001492048 0.2374671 
3.85e+008 -0.00014843073 0.23685033 
3.86e+008 -0.00014766268 0.23623675 
3.87e+008 -0.00014690056 0.23562634 
3.88e+008 -0.00014614433 0.23501908 
3.89e+008 -0.00014539393 0.23441494 
3.9e+008 -0.00014464929 0.2338139 
3.91e+008 -0.00014391036 0.23321593 
3.92e+008 -0.00014317708 0.23262101 
3.93e+008 -0.00014244938 0.23202912 
3.94e+008 -0.00014172722 0.23144024 
3.95e+008 -0.00014101054 0.23085433 
3.96e+008 -0.00014029928 0.23027139 
3.97e+008 -0.00013959338 0.22969138 
3.98e+008 -0.0001388928 0.22911429 
3.99e+008 -0.00013819749 0.22854008 
4e+008 -0.00013750738 0.22796875 
4.01e+008 -0.00013682242 0.22740027 
4.02e+008 -0.00013614257 0.22683462 
4.03e+008 -0.00013546778 0.22627177 
4.04e+008 -0.00013479799 0.22571171 
4.05e+008 -0.00013413316 0.22515442 
4.06e+008 -0.00013347323 0.22459987 
4.07e+008 -0.00013281816 0.22404805 
4.08e+008 -0.0001321679 0.22349893 
4.09e+008 -0.0001315224 0.22295249 
4.1e+008 -0.00013088162 0.22240872 
4.11e+008 -0.00013024552 0.2218676 
4.12e+008 -0.00012961404 0.2213291 
4.13e+008 -0.00012898714 0.22079322 
4.14e+008 -0.00012836478 0.22025992 
4.15e+008 -0.00012774691 0.21972919 
4.16e+008 -0.00012713349 0.21920101 
4.17e+008 -0.00012652448 0.21867536 
4.18e+008 -0.00012591983 0.21815223 
4.19e+008 -0.00012531951 0.2176316 
4.2e+008 -0.00012472347 0.21711344 
4.21e+008 -0.00012413168 0.21659775 
4.22e+008 -0.00012354408 0.2160845 
4.23e+008 -0.00012296065 0.21557368 
4.24e+008 -0.00012238134 0.21506527 
4.25e+008 -0.00012180612 0.21455925 
4.26e+008 -0.00012123494 0.2140556 
4.27e+008 -0.00012066777 0.21355432 
4.28e+008 -0.00012010457 0.21305537 
4.29e+008 -0.0001195453 0.21255875 
4.3e+008 -0.00011898993 0.21206445 
4.31e+008 -0.00011843843 0.21157243 
4.32e+008 -0.00011789074 0.2110827 
4.33e+008 -0.00011734685 0.21059522 
4.34e+008 -0.00011680672 0.21010999 
4.35e+008 -0.0001162703 0.209627 
4.36e+008 -0.00011573757 0.20914621 
4.37e+008 -0.00011520849 0.20866763 
4.38e+008 -0.00011468304 0.20819124 
4.39e+008 -0.00011416117 0.20771701 
4.4e+008 -0.00011364285 0.20724494 
4.41e+008 -0.00011312806 0.20677501 
4.42e+008 -0.00011261675 0.2063072 
4.43e+008 -0.00011210891 0.20584151 
4.44e+008 -0.00011160449 0.20537792 
4.45e+008 -0.00011110347 0.20491641 
4.46e+008 -0.00011060581 0.20445697 
4.47e+008 -0.00011011149 0.20399958 
4.48e+008 -0.00010962048 0.20354424 
4.49e+008 -0.00010913274 0.20309092 
4.5e+008 -0.00010864825 0.20263962 
4.51e+008 -0.00010816699 0.20219032 
4.52e+008 -0.00010768891 0.20174301 
4.53e+008 -0.00010721399 0.20129767 
4.54e+008 -0.00010674221 0.2008543 
4.55e+008 -0.00010627354 0.20041287 
4.56e+008 -0.00010580794 0.19997338 
4.57e+008 -0.0001053454 0.19953581 
4.58e+008 -0.00010488589 0.19910016 
4.59e+008 -0.00010442937 0.1986664 
4.6e+008 -0.00010397583 0.19823453 
4.61e+008 -0.00010352524 0.19780453 
4.62e+008 -0.00010307757 0.19737639 
4.63e+008 -0.0001026328 0.1969501 
4.64e+008 -0.0001021909 0.19652565 
4.65e+008 -0.00010175185 0.19610303 
4.66e+008 -0.00010131562 0.19568222 
4.67e+008 -0.00010088219 0.19526321 
4.68e+008 -0.00010045154 0.19484599 
4.69e+008 -0.00010002363 0.19443055 
4.7e+008 -9.9598461e-005 0.19401688 
4.71e+008 -9.9175993e-005 0.19360496 
4.72e+008 -9.8756207e-005 0.19319479 
4.73e+008 -9.833908e-005 0.19278636 
4.74e+008 -9.7924591e-005 0.19237964 
4.75e+008 -9.7512717e-005 0.19197464 
4.76e+008 -9.7103436e-005 0.19157135 
4.77e+008 -9.6696726e-005 0.19116974 
4.78e+008 -9.6292566e-005 0.19076981 
4.79e+008 -9.5890934e-005 0.19037155 
4.8e+008 -9.549181e-005 0.18997496 
4.81e+008 -9.5095173e-005 0.18958001 
4.82e+008 -9.4701002e-005 0.1891867 
4.83e+008 -9.4309277e-005 0.18879502 
4.84e+008 -9.3919977e-005 0.18840495 
4.85e+008 -9.3533082e-005 0.1880165 
4.86e+008 -9.3148574e-005 0.18762964 
4.87e+008 -9.2766431e-005 0.18724437 
4.88e+008 -9.2386636e-005 0.18686069 
4.89e+008 -9.2009168e-005 0.18647857 
4.9e+008 -9.1634008e-005 0.18609801 
4.91e+008 -9.1261138e-005 0.185719 
4.92e+008 -9.089054e-005 0.18534153 
4.93e+008 -9.0522195e-005 0.18496559 
4.94e+008 -9.0156084e-005 0.18459117 
4.95e+008 -8.9792189e-005 0.18421827 
4.96e+008 -8.9430494e-005 0.18384687 
4.97e+008 -8.9070979e-005 0.18347697 
4.98e+008 -8.8713628e-005 0.18310855 
4.99e+008 -8.8358423e-005 0.1827416 
5e+008 -8.8005347e-005 0.18237613 
5.01e+008 -8.7654384e-005 0.18201211 
5.02e+008 -8.7305515e-005 0.18164955 
5.03e+008 -8.6958725e-005 0.18128842 
5.04e+008 -8.6613998e-005 0.18092873 
5.05e+008 -8.6271316e-005 0.18057046 
5.06e+008 -8.5930664e-005 0.18021361 
5.07e+008 -8.5592025e-005 0.17985817 
5.08e+008 -8.5255384e-005 0.17950413 
5.09e+008 -8.4920726e-005 0.17915147 
5.1e+008 -8.4588034e-005 0.1788002 
5.11e+008 -8.4257293e-005 0.17845031 
5.12e+008 -8.3928489e-005 0.17810178 
5.13e+008 -8.3601605e-005 0.17775461 
5.14e+008 -8.3276627e-005 0.17740879 
5.15e+008 -8.2953541e-005 0.17706431 
5.16e+008 -8.2632331e-005 0.17672117 
5.17e+008 -8.2312983e-005 0.17637936 
5.18e+008 -8.1995483e-005 0.17603887 
5.19e+008 -8.1679816e-005 0.17569968 
5.2e+008 -8.1365968e-005 0.17536181 
5.21e+008 -8.1053926e-005 0.17502523 
5.22e+008 -8.0743676e-005 0.17468994 
5.23e+008 -8.0435204e-005 0.17435593 
5.24e+008 -8.0128495e-005 0.17402319 
5.25e+008 -7.9823538e-005 0.17369173 
5.26e+008 -7.9520319e-005 0.17336152 
5.27e+008 -7.9218824e-005 0.17303257 
5.28e+008 -7.891904e-005 0.17270486 
5.29e+008 -7.8620955e-005 0.1723784 
5.3e+008 -7.8324555e-005 0.17205316 
5.31e+008 -7.8029828e-005 0.17172915 
5.32e+008 -7.7736762e-005 0.17140636 
5.33e+008 -7.7445344e-005 0.17108477 
5.34e+008 -7.7155561e-005 0.1707644 
5.35e+008 -7.6867402e-005 0.17044522 
5.36e+008 -7.6580854e-005 0.17012723 
5.37e+008 -7.6295905e-005 0.16981042 
5.38e+008 -7.6012544e-005 0.1694948 
5.39e+008 -7.5730759e-005 0.16918034 
5.4e+008 -7.5450537e-005 0.16886705 
5.41e+008 -7.5171868e-005 0.16855492 
5.42e+008 -7.489474e-005 0.16824394 
5.43e+008 -7.4619141e-005 0.1679341 
5.44e+008 -7.4345061e-005 0.1676254 
5.45e+008 -7.4072489e-005 0.16731784 
5.46e+008 -7.3801412e-005 0.1670114 
5.47e+008 -7.3531821e-005 0.16670609 
5.48e+008 -7.3263704e-005 0.16640188 
5.49e+008 -7.2997052e-005 0.16609879 
5.5e+008 -7.2731852e-005 0.1657968 
5.51e+008 -7.2468095e-005 0.1654959 
5.52e+008 -7.220577e-005 0.16519609 
5.53e+008 -7.1944867e-005 0.16489737 
5.54e+008 -7.1685375e-005 0.16459973 
5.55e+008 -7.1427285e-005 0.16430316 
5.56e+008 -7.1170586e-005 0.16400765 
5.57e+008 -7.0915268e-005 0.16371321 
5.58e+008 -7.0661322e-005 0.16341982 
5.59e+008 -7.0408737e-005 0.16312749 
5.6e+008 -7.0157504e-005 0.16283619 
5.61e+008 -6.9907614e-005 0.16254594 
5.62e+008 -6.9659056e-005 0.16225671 
5.63e+008 -6.9411822e-005 0.16196852 
5.64e+008 -6.9165901e-005 0.16168135 
5.65e+008 -6.8921285e-005 0.16139519 
5.66e+008 -6.8677965e-005 0.16111004 
5.67e+008 -6.843593e-005 0.1608259 
5.68e+008 -6.8195173e-005 0.16054276 
5.69e+008 -6.7955684e-005 0.16026062 
5.7e+008 -6.7717455e-005 0.15997947 
5.71e+008 -6.7480476e-005 0.1596993 
5.72e+008 -6.7244739e-005 0.15942011 
5.73e+008 -6.7010235e-005 0.15914189 
5.74e+008 -6.6776955e-005 0.15886464 
5.75e+008 -6.6544892e-005 0.15858836 
5.76e+008 -6.6314036e-005 0.15831304 
5.77e+008 -6.6084379e-005 0.15803867 
5.78e+008 -6.5855913e-005 0.15776525 
5.79e+008 -6.562863e-005 0.15749278 
5.8e+008 -6.5402522e-005 0.15722124 
5.81e+008 -6.517758e-005 0.15695064 
5.82e+008 -6.4953797e-005 0.15668097 
5.83e+008 -6.4731164e-005 0.15641223 
5.84e+008 -6.4509674e-005 0.1561444 
5.85e+008 -6.4289318e-005 0.15587749 
5.86e+008 -6.407009e-005 0.1556115 
5.87e+008 -6.3851981e-005 0.1553464 
5.88e+008 -6.3634984e-005 0.15508221 
5.89e+008 -6.3419092e-005 0.15481892 
5.9e+008 -6.3204296e-005 0.15455652 
5.91e+008 -6.2990589e-005 0.15429501 
5.92e+008 -6.2777965e-005 0.15403438 
5.93e+008 -6.2566415e-005 0.15377463 
5.94e+008 -6.2355933e-005 0.15351575 
5.95e+008 -6.2146511e-005 0.15325775 
5.96e+008 -6.1938143e-005 0.15300061 
5.97e+008 -6.1730821e-005 0.15274433 
5.98e+008 -6.1524537e-005 0.15248891 
5.99e+008 -6.1319287e-005 0.15223434 
6e+008 -6.1115061e-005 0.15198062 
6.01e+008 -6.0911854e-005 0.15172774 
6.02e+008 -6.0709659e-005 0.15147571 
6.03e+008 -6.0508469e-005 0.15122451 
6.04e+008 -6.0308277e-005 0.15097414 
6.05e+008 -6.0109078e-005 0.1507246 
6.06e+008 -5.9910863e-005 0.15047588 
6.07e+008 -5.9713628e-005 0.15022798 
6.08e+008 -5.9517364e-005 0.1499809 
6.09e+008 -5.9322067e-005 0.14973463 
6.1e+008 -5.912773e-005 0.14948917 
6.11e+008 -5.8934346e-005 0.14924451 
6.12e+008 -5.8741909e-005 0.14900065 
6.13e+008 -5.8550413e-005 0.14875758 
6.14e+008 -5.8359852e-005 0.14851531 
6.15e+008 -5.817022e-005 0.14827383 
6.16e+008 -5.798151e-005 0.14803313 
6.17e+008 -5.7793717e-005 0.14779321 
6.18e+008 -5.7606836e-005 0.14755406 
6.19e+008 -5.7420859e-005 0.14731569 
6.2e+008 -5.7235781e-005 0.14707809 
6.21e+008 -5.7051597e-005 0.14684125 
6.22e+008 -5.68683e-005 0.14660517 
6.23e+008 -5.6685885e-005 0.14636986 
6.24e+008 -5.6504347e-005 0.14613529 
6.25e+008 -5.6323679e-005 0.14590148 
6.26e+008 -5.6143876e-005 0.14566841 
6.27e+008 -5.5964933e-005 0.14543609 
6.28e+008 -5.5786844e-005 0.14520451 
6.29e+008 -5.5609604e-005 0.14497366 
6.3e+008 -5.5433207e-005 0.14474355 
6.31e+008 -5.5257648e-005 0.14451416 
6.32e+008 -5.5082922e-005 0.1442855 
6.33e+008 -5.4909023e-005 0.14405757 
6.34e+008 -5.4735947e-005 0.14383035 
6.35e+008 -5.4563687e-005 0.14360385 
6.36e+008 -5.4392239e-005 0.14337806 
6.37e+008 -5.4221598e-005 0.14315298 
6.38e+008 -5.4051759e-005 0.14292861 
6.39e+008 -5.3882717e-005 0.14270493 
6.4e+008 -5.3714466e-005 0.14248196 
6.41e+008 -5.3547002e-005 0.14225968 
6.42e+008 -5.3380321e-005 0.1420381 
6.43e+008 -5.3214416e-005 0.1418172 
6.44e+008 -5.3049283e-005 0.14159699 
6.45e+008 -5.2884918e-005 0.14137746 
6.46e+008 -5.2721316e-005 0.14115862 
6.47e+008 -5.2558471e-005 0.14094044 
6.48e+008 -5.239638e-005 0.14072295 
6.49e+008 -5.2235038e-005 0.14050612 
6.5e+008 -5.2074439e-005 0.14028996 
6.51e+008 -5.191458e-005 0.14007446 
6.52e+008 -5.1755457e-005 0.13985963 
6.53e+008 -5.1597063e-005 0.13964545 
6.54e+008 -5.1439396e-005 0.13943193 
6.55e+008 -5.128245e-005 0.13921906 
6.56e+008 -5.1126221e-005 0.13900684 
6.57e+008 -5.0970706e-005 0.13879526 
6.58e+008 -5.0815898e-005 0.13858433 
6.59e+008 -5.0661795e-005 0.13837404 
6.6e+008 -5.0508392e-005 0.13816438 
6.61e+008 -5.0355685e-005 0.13795536 
6.62e+008 -5.0203669e-005 0.13774697 
6.63e+008 -5.005234e-005 0.13753921 
6.64e+008 -4.9901694e-005 0.13733207 
6.65e+008 -4.9751728e-005 0.13712556 
6.66e+008 -4.9602437e-005 0.13691967 
6.67e+008 -4.9453816e-005 0.1367144 
6.68e+008 -4.9305863e-005 0.13650974 
6.69e+008 -4.9158572e-005 0.13630569 
6.7e+008 -4.9011941e-005 0.13610225 
6.71e+008 -4.8865965e-005 0.13589942 
6.72e+008 -4.8720639e-005 0.13569719 
6.73e+008 -4.8575962e-005 0.13549556 
6.74e+008 -4.8431927e-005 0.13529453 
6.75e+008 -4.8288532e-005 0.1350941 
6.76e+008 -4.8145774e-005 0.13489426 
6.77e+008 -4.8003647e-005 0.13469501 
6.78e+008 -4.7862149e-005 0.13449634 
6.79e+008 -4.7721275e-005 0.13429827 
6.8e+008 -4.7581023e-005 0.13410077 
6.81e+008 -4.7441387e-005 0.13390386 
6.82e+008 -4.7302366e-005 0.13370752 
6.83e+008 -4.7163955e-005 0.13351176 
6.84e+008 -4.702615e-005 0.13331656 
6.85e+008 -4.6888949e-005 0.13312194 
6.86e+008 -4.6752347e-005 0.13292789 
6.87e+008 -4.6616341e-005 0.1327344 
6.88e+008 -4.6480928e-005 0.13254148 
6.89e+008 -4.6346104e-005 0.13234911 
6.9e+008 -4.6211865e-005 0.1321573 
6.91e+008 -4.607821e-005 0.13196605 
6.92e+008 -4.5945133e-005 0.13177535 
6.93e+008 -4.5812631e-005 0.1315852 
6.94e+008 -4.5680703e-005 0.1313956 
6.95e+008 -4.5549343e-005 0.13120654 
6.96e+008 -4.5418549e-005 0.13101803 
6.97e+008 -4.5288317e-005 0.13083006 
6.98e+008 -4.5158645e-005 0.13064262 
6.99e+008 -4.5029529e-005 0.13045573 
7e+008 -4.4900966e-005 0.13026936 
7.01e+008 -4.4772953e-005 0.13008353 
7.02e+008 -4.4645486e-005 0.12989823 
7.03e+008 -4.4518563e-005 0.12971346 
7.04e+008 -4.439218e-005 0.12952921 
7.05e+008 -4.4266335e-005 0.12934548 
7.06e+008 -4.4141025e-005 0.12916227 
7.07e+008 -4.4016245e-005 0.12897958 
7.08e+008 -4.3891994e-005 0.12879741 
7.09e+008 -4.3768268e-005 0.12861575 
7.1e+008 -4.3645065e-005 0.1284346 
7.11e+008 -4.3522381e-005 0.12825397 
7.12e+008 -4.3400214e-005 0.12807384 
7.13e+008 -4.327856e-005 0.12789421 
7.14e+008 -4.3157418e-005 0.12771509 
7.15e+008 -4.3036783e-005 0.12753647 
7.16e+008 -4.2916653e-005 0.12735835 
7.17e+008 -4.2797025e-005 0.12718072 
7.18e+008 -4.2677897e-005 0.12700359 
7.19e+008 -4.2559266e-005 0.12682696 
7.2e+008 -4.2441129e-005 0.12665081 
7.21e+008 -4.2323483e-005 0.12647515 
7.22e+008 -4.2206325e-005 0.12629998 
7.23e+008 -4.2089653e-005 0.12612529 
7.24e+008 -4.1973464e-005 0.12595109 
7.25e+008 -4.1857756e-005 0.12577736 
7.26e+008 -4.1742525e-005 0.12560412 
7.27e+008 -4.162777e-005 0.12543135 
7.28e+008 -4.1513487e-005 0.12525906 
7.29e+008 -4.1399674e-005 0.12508724 
7.3e+008 -4.1286329e-005 0.12491588 
7.31e+008 -4.1173448e-005 0.124745 
7.32e+008 -4.106103e-005 0.12457459 
7.33e+008 -4.0949072e-005 0.12440464 
7.34e+008 -4.0837571e-005 0.12423515 
7.35e+008 -4.0726524e-005 0.12406613 
7.36e+008 -4.061593e-005 0.12389756 
7.37e+008 -4.0505786e-005 0.12372945 
7.38e+008 -4.0396089e-005 0.1235618 
7.39e+008 -4.0286837e-005 0.1233946 
7.4e+008 -4.0178028e-005 0.12322785 
7.41e+008 -4.0069659e-005 0.12306155 
7.42e+008 -3.9961728e-005 0.1228957 
7.43e+008 -3.9854233e-005 0.1227303 
7.44e+008 -3.974717e-005 0.12256534 
7.45e+008 -3.9640539e-005 0.12240082 
7.46e+008 -3.9534336e-005 0.12223675 
7.47e+008 -3.9428559e-005 0.12207311 
7.48e+008 -3.9323206e-005 0.12190992 
7.49e+008 -3.9218275e-005 0.12174716 
7.5e+008 -3.9113763e-005 0.12158483 
7.51e+008 -3.9009668e-005 0.12142293 
7.52e+008 -3.8905989e-005 0.12126147 
7.53e+008 -3.8802722e-005 0.12110043 
7.54e+008 -3.8699866e-005 0.12093982 
7.55e+008 -3.8597418e-005 0.12077964 
7.56e+008 -3.8495377e-005 0.12061988 
7.57e+008 -3.8393739e-005 0.12046054 
7.58e+008 -3.8292504e-005 0.12030162 
7.59e+008 -3.8191668e-005 0.12014312 
7.6e+008 -3.8091231e-005 0.11998504 
7.61e+008 -3.7991189e-005 0.11982738 
7.62e+008 -3.789154e-005 0.11967012 
7.63e+008 -3.7792283e-005 0.11951328 
7.64e+008 -3.7693416e-005 0.11935685 
7.65e+008 -3.7594936e-005 0.11920083 
7.66e+008 -3.7496842e-005 0.11904522 
7.67e+008 -3.739913e-005 0.11889001 
7.68e+008 -3.7301801e-005 0.11873521 
7.69e+008 -3.7204851e-005 0.11858081 
7.7e+008 -3.7108278e-005 0.11842681 
7.71e+008 -3.7012081e-005 0.11827321 
7.72e+008 -3.6916257e-005 0.11812001 
7.73e+008 -3.6820805e-005 0.1179672 
7.74e+008 -3.6725723e-005 0.11781479 
7.75e+008 -3.6631009e-005 0.11766277 
7.76e+008 -3.653666e-005 0.11751115 
7.77e+008 -3.6442676e-005 0.11735991 
7.78e+008 -3.6349053e-005 0.11720906 
7.79e+008 -3.6255791e-005 0.1170586 
7.8e+008 -3.6162888e-005 0.11690853 
7.81e+008 -3.6070341e-005 0.11675884 
7.82e+008 -3.5978149e-005 0.11660953 
7.83e+008 -3.588631e-005 0.11646061 
7.84e+008 -3.5794822e-005 0.11631206 
7.85e+008 -3.5703684e-005 0.1161639 
7.86e+008 -3.5612893e-005 0.11601611 
7.87e+008 -3.5522448e-005 0.11586869 
7.88e+008 -3.5432347e-005 0.11572165 
7.89e+008 -3.5342589e-005 0.11557499 
7.9e+008 -3.5253171e-005 0.11542869 
7.91e+008 -3.5164092e-005 0.11528276 
7.92e+008 -3.507535e-005 0.1151372 
7.93e+008 -3.4986944e-005 0.11499201 
7.94e+008 -3.4898872e-005 0.11484719 