! AWR Design Environment (7670) Fri Mar 18 13:37:58 2016
! Document = 'RL'
! nPorts: 1, nXvals: 1000

# HZ S RI R 50
!Freq ReS11 ImS11 
1000000 0.43284597 0.23756892 
2000000 0.60826679 0.32817764 
3000000 0.74151558 0.32482111 
4000000 0.82490027 0.29338241 
5000000 0.87623358 0.25921578 
6000000 0.90888233 0.22900367 
7000000 0.93053763 0.20367432 
8000000 0.94548663 0.18267604 
9000000 0.95617561 0.16521405 
10000000 0.96405327 0.15057329 
11000000 0.97001133 0.13817789 
12000000 0.97461883 0.1275797 
13000000 0.97825095 0.11843288 
14000000 0.98116233 0.11046984 
15000000 0.98353032 0.10348206 
16000000 0.98548126 0.097305531 
17000000 0.98710705 0.091809987 
18000000 0.98847573 0.086890959 
19000000 0.98963853 0.082463855 
20000000 0.99063458 0.078459557 
21000000 0.99149418 0.074821109 
22000000 0.99224107 0.071501197 
23000000 0.99289405 0.068460228 
24000000 0.9934682 0.065664829 
25000000 0.99397566 0.063086696 
26000000 0.99442636 0.060701667 
27000000 0.99482844 0.058489009 
28000000 0.99518862 0.056430825 
29000000 0.99551252 0.054511599 
30000000 0.99580485 0.052717808 
31000000 0.99606957 0.05103762 
32000000 0.99631004 0.049460635 
33000000 0.99652914 0.047977678 
34000000 0.99672932 0.046580625 
35000000 0.99691269 0.045262258 
36000000 0.99708109 0.04401614 
37000000 0.99723609 0.042836516 
38000000 0.99737908 0.041718222 
39000000 0.99751127 0.040656616 
40000000 0.99763371 0.039647508 
41000000 0.99774735 0.038687113 
42000000 0.997853 0.037771996 
43000000 0.9979514 0.036899041 
44000000 0.99804319 0.036065406 
45000000 0.99812895 0.035268503 
46000000 0.9982092 0.034505961 
47000000 0.9982844 0.033775611 
48000000 0.99835496 0.033075462 
49000000 0.99842126 0.032403683 
50000000 0.99848364 0.031758588 
51000000 0.99854239 0.031138621 
52000000 0.9985978 0.030542345 
53000000 0.99865011 0.02996843 
54000000 0.99869954 0.029415645 
55000000 0.99874631 0.028882845 
56000000 0.99879061 0.028368968 
57000000 0.9988326 0.027873026 
58000000 0.99887244 0.027394096 
59000000 0.99891027 0.02693132 
60000000 0.99894624 0.026483896 
61000000 0.99898045 0.026051073 
62000000 0.99901303 0.025632149 
63000000 0.99904407 0.025226465 
64000000 0.99907367 0.024833406 
65000000 0.99910191 0.024452391 
66000000 0.99912888 0.024082876 
67000000 0.99915466 0.023724348 
68000000 0.99917931 0.023376326 
69000000 0.9992029 0.023038355 
70000000 0.99922548 0.022710006 
71000000 0.99924712 0.022390874 
72000000 0.99926787 0.022080578 
73000000 0.99928777 0.021778755 
74000000 0.99930687 0.021485063 
75000000 0.99932521 0.02119918 
76000000 0.99934283 0.020920797 
77000000 0.99935977 0.020649623 
78000000 0.99937607 0.020385383 
79000000 0.99939175 0.020127814 
80000000 0.99940685 0.019876667 
81000000 0.99942139 0.019631705 
82000000 0.99943541 0.019392702 
83000000 0.99944892 0.019159444 
84000000 0.99946195 0.018931725 
85000000 0.99947453 0.018709352 
86000000 0.99948667 0.018492139 
87000000 0.99949839 0.018279907 
88000000 0.99950972 0.018072488 
89000000 0.99952067 0.01786972 
90000000 0.99953125 0.017671449 
91000000 0.99954149 0.017477525 
92000000 0.9995514 0.017287809 
93000000 0.99956098 0.017102165 
94000000 0.99957027 0.016920463 
95000000 0.99957926 0.016742579 
96000000 0.99958798 0.016568394 
97000000 0.99959642 0.016397793 
98000000 0.99960461 0.016230669 
99000000 0.99961256 0.016066914 
1e+008 0.99962026 0.015906429 
1.01e+008 0.99962774 0.015749116 
1.02e+008 0.999635 0.015594883 
1.03e+008 0.99964205 0.01544364 
1.04e+008 0.9996489 0.0152953 
1.05e+008 0.99965555 0.015149782 
1.06e+008 0.99966201 0.015007005 
1.07e+008 0.9996683 0.014866893 
1.08e+008 0.99967441 0.014729372 
1.09e+008 0.99968035 0.01459437 
1.1e+008 0.99968614 0.014461819 
1.11e+008 0.99969176 0.014331654 
1.12e+008 0.99969724 0.014203809 
1.13e+008 0.99970257 0.014078225 
1.14e+008 0.99970777 0.01395484 
1.15e+008 0.99971282 0.013833599 
1.16e+008 0.99971775 0.013714445 
1.17e+008 0.99972255 0.013597325 
1.18e+008 0.99972723 0.013482189 
1.19e+008 0.9997318 0.013368984 
1.2e+008 0.99973625 0.013257665 
1.21e+008 0.99974059 0.013148183 
1.22e+008 0.99974482 0.013040494 
1.23e+008 0.99974895 0.012934554 
1.24e+008 0.99975298 0.01283032 
1.25e+008 0.99975692 0.012727753 
1.26e+008 0.99976076 0.012626812 
1.27e+008 0.99976451 0.012527459 
1.28e+008 0.99976817 0.012429656 
1.29e+008 0.99977175 0.012333368 
1.3e+008 0.99977525 0.012238561 
1.31e+008 0.99977867 0.012145199 
1.32e+008 0.99978201 0.01205325 
1.33e+008 0.99978527 0.011962683 
1.34e+008 0.99978846 0.011873466 
1.35e+008 0.99979159 0.011785569 
1.36e+008 0.99979464 0.011698964 
1.37e+008 0.99979762 0.011613623 
1.38e+008 0.99980055 0.011529516 
1.39e+008 0.9998034 0.011446619 
1.4e+008 0.9998062 0.011364906 
1.41e+008 0.99980894 0.01128435 
1.42e+008 0.99981162 0.011204928 
1.43e+008 0.99981425 0.011126615 
1.44e+008 0.99981682 0.01104939 
1.45e+008 0.99981933 0.010973228 
1.46e+008 0.9998218 0.01089811 
1.47e+008 0.99982421 0.010824012 
1.48e+008 0.99982658 0.010750915 
1.49e+008 0.9998289 0.010678798 
1.5e+008 0.99983117 0.010607643 
1.51e+008 0.9998334 0.010537429 
1.52e+008 0.99983559 0.010468138 
1.53e+008 0.99983773 0.010399752 
1.54e+008 0.99983983 0.010332254 
1.55e+008 0.99984189 0.010265626 
1.56e+008 0.99984391 0.010199851 
1.57e+008 0.99984589 0.010134914 
1.58e+008 0.99984783 0.010070798 
1.59e+008 0.99984974 0.010007489 
1.6e+008 0.99985161 0.0099449699 
1.61e+008 0.99985345 0.0098832271 
1.62e+008 0.99985525 0.0098222461 
1.63e+008 0.99985702 0.0097620129 
1.64e+008 0.99985876 0.0097025137 
1.65e+008 0.99986047 0.0096437353 
1.66e+008 0.99986214 0.0095856646 
1.67e+008 0.99986379 0.0095282889 
1.68e+008 0.99986541 0.0094715959 
1.69e+008 0.99986699 0.0094155734 
1.7e+008 0.99986855 0.0093602096 
1.71e+008 0.99987009 0.0093054929 
1.72e+008 0.99987159 0.0092514121 
1.73e+008 0.99987307 0.0091979561 
1.74e+008 0.99987453 0.0091451143 
1.75e+008 0.99987596 0.009092876 
1.76e+008 0.99987736 0.009041231 
1.77e+008 0.99987874 0.0089901692 
1.78e+008 0.9998801 0.0089396809 
1.79e+008 0.99988144 0.0088897563 
1.8e+008 0.99988275 0.0088403862 
1.81e+008 0.99988404 0.0087915613 
1.82e+008 0.99988531 0.0087432727 
1.83e+008 0.99988656 0.0086955116 
1.84e+008 0.99988779 0.0086482693 
1.85e+008 0.999889 0.0086015375 
1.86e+008 0.99989019 0.008555308 
1.87e+008 0.99989136 0.0085095726 
1.88e+008 0.99989252 0.0084643236 
1.89e+008 0.99989365 0.0084195531 
1.9e+008 0.99989477 0.0083752537 
1.91e+008 0.99989586 0.0083314179 
1.92e+008 0.99989695 0.0082880386 
1.93e+008 0.99989801 0.0082451086 
1.94e+008 0.99989906 0.0082026209 
1.95e+008 0.99990009 0.0081605688 
1.96e+008 0.99990111 0.0081189456 
1.97e+008 0.99990211 0.0080777449 
1.98e+008 0.9999031 0.0080369601 
1.99e+008 0.99990407 0.007996585 
2e+008 0.99990502 0.0079566135 
2.01e+008 0.99990597 0.0079170395 
2.02e+008 0.9999069 0.0078778572 
2.03e+008 0.99990781 0.0078390608 
2.04e+008 0.99990871 0.0078006446 
2.05e+008 0.9999096 0.007762603 
2.06e+008 0.99991048 0.0077249306 
2.07e+008 0.99991134 0.0076876221 
2.08e+008 0.99991219 0.0076506721 
2.09e+008 0.99991303 0.0076140756 
2.1e+008 0.99991385 0.0075778275 
2.11e+008 0.99991467 0.0075419228 
2.12e+008 0.99991547 0.0075063568 
2.13e+008 0.99991626 0.0074711245 
2.14e+008 0.99991704 0.0074362214 
2.15e+008 0.99991781 0.0074016429 
2.16e+008 0.99991857 0.0073673844 
2.17e+008 0.99991932 0.0073334416 
2.18e+008 0.99992006 0.00729981 
2.19e+008 0.99992079 0.0072664855 
2.2e+008 0.99992151 0.0072334638 
2.21e+008 0.99992221 0.0072007409 
2.22e+008 0.99992291 0.0071683126 
2.23e+008 0.9999236 0.0071361751 
2.24e+008 0.99992428 0.0071043244 
2.25e+008 0.99992496 0.0070727568 
2.26e+008 0.99992562 0.0070414684 
2.27e+008 0.99992627 0.0070104556 
2.28e+008 0.99992692 0.0069797147 
2.29e+008 0.99992755 0.0069492423 
2.3e+008 0.99992818 0.0069190347 
2.31e+008 0.9999288 0.0068890886 
2.32e+008 0.99992942 0.0068594005 
2.33e+008 0.99993002 0.0068299672 
2.34e+008 0.99993062 0.0068007854 
2.35e+008 0.99993121 0.0067718519 
2.36e+008 0.99993179 0.0067431635 
2.37e+008 0.99993236 0.0067147171 
2.38e+008 0.99993293 0.0066865097 
2.39e+008 0.99993349 0.0066585383 
2.4e+008 0.99993404 0.0066307999 
2.41e+008 0.99993459 0.0066032916 
2.42e+008 0.99993513 0.0065760106 
2.43e+008 0.99993566 0.006548954 
2.44e+008 0.99993619 0.0065221192 
2.45e+008 0.99993671 0.0064955034 
2.46e+008 0.99993722 0.0064691039 
2.47e+008 0.99993773 0.0064429181 
2.48e+008 0.99993823 0.0064169434 
2.49e+008 0.99993872 0.0063911773 
2.5e+008 0.99993921 0.0063656172 
2.51e+008 0.9999397 0.0063402608 
2.52e+008 0.99994017 0.0063151056 
2.53e+008 0.99994065 0.0062901491 
2.54e+008 0.99994111 0.0062653892 
2.55e+008 0.99994157 0.0062408233 
2.56e+008 0.99994203 0.0062164494 
2.57e+008 0.99994248 0.006192265 
2.58e+008 0.99994292 0.0061682681 
2.59e+008 0.99994336 0.0061444565 
2.6e+008 0.9999438 0.0061208279 
2.61e+008 0.99994423 0.0060973804 
2.62e+008 0.99994465 0.0060741118 
2.63e+008 0.99994507 0.0060510202 
2.64e+008 0.99994549 0.0060281034 
2.65e+008 0.9999459 0.0060053595 
2.66e+008 0.99994631 0.0059827866 
2.67e+008 0.99994671 0.0059603828 
2.68e+008 0.9999471 0.0059381461 
2.69e+008 0.9999475 0.0059160747 
2.7e+008 0.99994788 0.0058941667 
2.71e+008 0.99994827 0.0058724204 
2.72e+008 0.99994865 0.005850834 
2.73e+008 0.99994902 0.0058294056 
2.74e+008 0.99994939 0.0058081336 
2.75e+008 0.99994976 0.0057870163 
2.76e+008 0.99995013 0.005766052 
2.77e+008 0.99995048 0.0057452391 
2.78e+008 0.99995084 0.0057245758 
2.79e+008 0.99995119 0.0057040606 
2.8e+008 0.99995154 0.0056836919 
2.81e+008 0.99995188 0.0056634682 
2.82e+008 0.99995222 0.0056433879 
2.83e+008 0.99995256 0.0056234494 
2.84e+008 0.9999529 0.0056036513 
2.85e+008 0.99995323 0.0055839922 
2.86e+008 0.99995355 0.0055644704 
2.87e+008 0.99995387 0.0055450847 
2.88e+008 0.99995419 0.0055258336 
2.89e+008 0.99995451 0.0055067157 
2.9e+008 0.99995482 0.0054877296 
2.91e+008 0.99995513 0.005468874 
2.92e+008 0.99995544 0.0054501474 
2.93e+008 0.99995574 0.0054315487 
2.94e+008 0.99995605 0.0054130765 
2.95e+008 0.99995634 0.0053947295 
2.96e+008 0.99995664 0.0053765065 
2.97e+008 0.99995693 0.0053584061 
2.98e+008 0.99995722 0.0053404272 
2.99e+008 0.9999575 0.0053225685 
3e+008 0.99995779 0.0053048288 
3.01e+008 0.99995807 0.005287207 
3.02e+008 0.99995834 0.0052697019 
3.03e+008 0.99995862 0.0052523123 
3.04e+008 0.99995889 0.0052350371 
3.05e+008 0.99995916 0.0052178752 
3.06e+008 0.99995942 0.0052008254 
3.07e+008 0.99995969 0.0051838866 
3.08e+008 0.99995995 0.0051670579 
3.09e+008 0.99996021 0.005150338 
3.1e+008 0.99996046 0.005133726 
3.11e+008 0.99996072 0.0051172208 
3.12e+008 0.99996097 0.0051008213 
3.13e+008 0.99996122 0.0050845267 
3.14e+008 0.99996147 0.0050683358 
3.15e+008 0.99996171 0.0050522477 
3.16e+008 0.99996195 0.0050362614 
3.17e+008 0.99996219 0.0050203759 
3.18e+008 0.99996243 0.0050045904 
3.19e+008 0.99996266 0.0049889038 
3.2e+008 0.9999629 0.0049733152 
3.21e+008 0.99996313 0.0049578237 
3.22e+008 0.99996336 0.0049424284 
3.23e+008 0.99996358 0.0049271285 
3.24e+008 0.99996381 0.0049119229 
3.25e+008 0.99996403 0.0048968109 
3.26e+008 0.99996425 0.0048817917 
3.27e+008 0.99996447 0.0048668642 
3.28e+008 0.99996468 0.0048520278 
3.29e+008 0.9999649 0.0048372816 
3.3e+008 0.99996511 0.0048226247 
3.31e+008 0.99996532 0.0048080563 
3.32e+008 0.99996553 0.0047935757 
3.33e+008 0.99996574 0.0047791821 
3.34e+008 0.99996594 0.0047648746 
3.35e+008 0.99996615 0.0047506526 
3.36e+008 0.99996635 0.0047365151 
3.37e+008 0.99996655 0.0047224616 
3.38e+008 0.99996674 0.0047084912 
3.39e+008 0.99996694 0.0046946033 
3.4e+008 0.99996713 0.004680797 
3.41e+008 0.99996733 0.0046670716 
3.42e+008 0.99996752 0.0046534266 
3.43e+008 0.99996771 0.004639861 
3.44e+008 0.99996789 0.0046263744 
3.45e+008 0.99996808 0.0046129659 
3.46e+008 0.99996826 0.0045996349 
3.47e+008 0.99996845 0.0045863807 
3.48e+008 0.99996863 0.0045732027 
3.49e+008 0.99996881 0.0045601002 
3.5e+008 0.99996898 0.0045470725 
3.51e+008 0.99996916 0.0045341191 
3.52e+008 0.99996934 0.0045212393 
3.53e+008 0.99996951 0.0045084324 
3.54e+008 0.99996968 0.0044956979 
3.55e+008 0.99996985 0.0044830351 
3.56e+008 0.99997002 0.0044704434 
3.57e+008 0.99997019 0.0044579223 
3.58e+008 0.99997036 0.0044454711 
3.59e+008 0.99997052 0.0044330893 
3.6e+008 0.99997068 0.0044207762 
3.61e+008 0.99997085 0.0044085314 
3.62e+008 0.99997101 0.0043963542 
3.63e+008 0.99997117 0.0043842441 
3.64e+008 0.99997132 0.0043722005 
3.65e+008 0.99997148 0.0043602229 
3.66e+008 0.99997164 0.0043483107 
3.67e+008 0.99997179 0.0043364635 
3.68e+008 0.99997194 0.0043246806 
3.69e+008 0.9999721 0.0043129616 
3.7e+008 0.99997225 0.0043013059 
3.71e+008 0.9999724 0.004289713 
3.72e+008 0.99997254 0.0042781825 
3.73e+008 0.99997269 0.0042667138 
3.74e+008 0.99997284 0.0042553064 
3.75e+008 0.99997298 0.0042439598 
3.76e+008 0.99997313 0.0042326736 
3.77e+008 0.99997327 0.0042214472 
3.78e+008 0.99997341 0.0042102803 
3.79e+008 0.99997355 0.0041991723 
3.8e+008 0.99997369 0.0041881227 
3.81e+008 0.99997383 0.0041771311 
3.82e+008 0.99997396 0.004166197 
3.83e+008 0.9999741 0.0041553201 
3.84e+008 0.99997423 0.0041444998 
3.85e+008 0.99997437 0.0041337357 
3.86e+008 0.9999745 0.0041230273 
3.87e+008 0.99997463 0.0041123743 
3.88e+008 0.99997476 0.0041017762 
3.89e+008 0.99997489 0.0040912326 
3.9e+008 0.99997502 0.0040807431 
3.91e+008 0.99997515 0.0040703072 
3.92e+008 0.99997527 0.0040599245 
3.93e+008 0.9999754 0.0040495947 
3.94e+008 0.99997552 0.0040393173 
3.95e+008 0.99997565 0.0040290919 
3.96e+008 0.99997577 0.0040189182 
3.97e+008 0.99997589 0.0040087957 
3.98e+008 0.99997601 0.003998724 
3.99e+008 0.99997613 0.0039887029 
4e+008 0.99997625 0.0039787319 
4.01e+008 0.99997637 0.0039688105 
4.02e+008 0.99997649 0.0039589386 
4.03e+008 0.99997661 0.0039491156 
4.04e+008 0.99997672 0.0039393412 
4.05e+008 0.99997684 0.0039296151 
4.06e+008 0.99997695 0.003919937 
4.07e+008 0.99997706 0.0039103063 
4.08e+008 0.99997718 0.0039007229 
4.09e+008 0.99997729 0.0038911863 
4.1e+008 0.9999774 0.0038816963 
4.11e+008 0.99997751 0.0038722524 
4.12e+008 0.99997762 0.0038628544 
4.13e+008 0.99997773 0.0038535018 
4.14e+008 0.99997783 0.0038441945 
4.15e+008 0.99997794 0.003834932 
4.16e+008 0.99997805 0.003825714 
4.17e+008 0.99997815 0.0038165402 
4.18e+008 0.99997825 0.0038074103 
4.19e+008 0.99997836 0.003798324 
4.2e+008 0.99997846 0.003789281 
4.21e+008 0.99997856 0.0037802809 
4.22e+008 0.99997866 0.0037713235 
4.23e+008 0.99997877 0.0037624084 
4.24e+008 0.99997887 0.0037535353 
4.25e+008 0.99997897 0.003744704 
4.26e+008 0.99997906 0.0037359142 
4.27e+008 0.99997916 0.0037271655 
4.28e+008 0.99997926 0.0037184577 
4.29e+008 0.99997936 0.0037097905 
4.3e+008 0.99997945 0.0037011637 
4.31e+008 0.99997955 0.0036925768 
4.32e+008 0.99997964 0.0036840297 
4.33e+008 0.99997974 0.0036755221 
4.34e+008 0.99997983 0.0036670536 
4.35e+008 0.99997992 0.0036586241 
4.36e+008 0.99998001 0.0036502333 
4.37e+008 0.9999801 0.0036418809 
4.38e+008 0.9999802 0.0036335666 
4.39e+008 0.99998029 0.0036252901 
4.4e+008 0.99998037 0.0036170513 
4.41e+008 0.99998046 0.0036088499 
4.42e+008 0.99998055 0.0036006855 
4.43e+008 0.99998064 0.003592558 
4.44e+008 0.99998073 0.0035844672 
4.45e+008 0.99998081 0.0035764126 
4.46e+008 0.9999809 0.0035683942 
4.47e+008 0.99998098 0.0035604117 
4.48e+008 0.99998107 0.0035524648 
4.49e+008 0.99998115 0.0035445533 
4.5e+008 0.99998124 0.003536677 
4.51e+008 0.99998132 0.0035288356 
4.52e+008 0.9999814 0.0035210288 
4.53e+008 0.99998149 0.0035132566 
4.54e+008 0.99998157 0.0035055186 
4.55e+008 0.99998165 0.0034978145 
4.56e+008 0.99998173 0.0034901443 
4.57e+008 0.99998181 0.0034825077 
4.58e+008 0.99998189 0.0034749043 
4.59e+008 0.99998197 0.0034673342 
4.6e+008 0.99998204 0.0034597969 
4.61e+008 0.99998212 0.0034522923 
4.62e+008 0.9999822 0.0034448202 
4.63e+008 0.99998228 0.0034373804 
4.64e+008 0.99998235 0.0034299726 
4.65e+008 0.99998243 0.0034225967 
4.66e+008 0.9999825 0.0034152525 
4.67e+008 0.99998258 0.0034079397 
4.68e+008 0.99998265 0.0034006582 
4.69e+008 0.99998273 0.0033934077 
4.7e+008 0.9999828 0.003386188 
4.71e+008 0.99998287 0.003378999 
4.72e+008 0.99998295 0.0033718405 
4.73e+008 0.99998302 0.0033647122 
4.74e+008 0.99998309 0.003357614 
4.75e+008 0.99998316 0.0033505457 
4.76e+008 0.99998323 0.0033435071 
4.77e+008 0.9999833 0.003336498 
4.78e+008 0.99998337 0.0033295183 
4.79e+008 0.99998344 0.0033225676 
4.8e+008 0.99998351 0.003315646 
4.81e+008 0.99998358 0.0033087531 
4.82e+008 0.99998365 0.0033018888 
4.83e+008 0.99998371 0.0032950529 
4.84e+008 0.99998378 0.0032882453 
4.85e+008 0.99998385 0.0032814657 
4.86e+008 0.99998391 0.0032747141 
4.87e+008 0.99998398 0.0032679901 
4.88e+008 0.99998405 0.0032612937 
4.89e+008 0.99998411 0.0032546247 
4.9e+008 0.99998418 0.003247983 
4.91e+008 0.99998424 0.0032413682 
4.92e+008 0.9999843 0.0032347804 
4.93e+008 0.99998437 0.0032282193 
4.94e+008 0.99998443 0.0032216847 
4.95e+008 0.99998449 0.0032151766 
4.96e+008 0.99998456 0.0032086947 
4.97e+008 0.99998462 0.0032022389 
4.98e+008 0.99998468 0.0031958089 
4.99e+008 0.99998474 0.0031894048 
5e+008 0.9999848 0.0031830263 
5.01e+008 0.99998486 0.0031766732 
5.02e+008 0.99998492 0.0031703455 
5.03e+008 0.99998498 0.0031640429 
5.04e+008 0.99998504 0.0031577653 
5.05e+008 0.9999851 0.0031515126 
5.06e+008 0.99998516 0.0031452846 
5.07e+008 0.99998522 0.0031390812 
5.08e+008 0.99998528 0.0031329021 
5.09e+008 0.99998533 0.0031267474 
5.1e+008 0.99998539 0.0031206168 
5.11e+008 0.99998545 0.0031145102 
5.12e+008 0.99998551 0.0031084274 
5.13e+008 0.99998556 0.0031023684 
5.14e+008 0.99998562 0.0030963329 
5.15e+008 0.99998567 0.0030903208 
5.16e+008 0.99998573 0.0030843321 
5.17e+008 0.99998579 0.0030783665 
5.18e+008 0.99998584 0.003072424 
5.19e+008 0.99998589 0.0030665043 
5.2e+008 0.99998595 0.0030606075 
5.21e+008 0.999986 0.0030547332 
5.22e+008 0.99998606 0.0030488815 
5.23e+008 0.99998611 0.0030430521 
5.24e+008 0.99998616 0.003037245 
5.25e+008 0.99998622 0.00303146 
5.26e+008 0.99998627 0.003025697 
5.27e+008 0.99998632 0.0030199559 
5.28e+008 0.99998637 0.0030142365 
5.29e+008 0.99998642 0.0030085388 
5.3e+008 0.99998647 0.0030028625 
5.31e+008 0.99998652 0.0029972076 
5.32e+008 0.99998658 0.002991574 
5.33e+008 0.99998663 0.0029859615 
5.34e+008 0.99998668 0.0029803701 
5.35e+008 0.99998673 0.0029747995 
5.36e+008 0.99998678 0.0029692497 
5.37e+008 0.99998682 0.0029637206 
5.38e+008 0.99998687 0.0029582121 
5.39e+008 0.99998692 0.002952724 
5.4e+008 0.99998697 0.0029472562 
5.41e+008 0.99998702 0.0029418086 
5.42e+008 0.99998707 0.0029363811 
5.43e+008 0.99998711 0.0029309736 
5.44e+008 0.99998716 0.002925586 
5.45e+008 0.99998721 0.0029202182 
5.46e+008 0.99998726 0.00291487 
5.47e+008 0.9999873 0.0029095413 
5.48e+008 0.99998735 0.0029042322 
5.49e+008 0.99998739 0.0028989423 
5.5e+008 0.99998744 0.0028936717 
5.51e+008 0.99998749 0.0028884202 
5.52e+008 0.99998753 0.0028831878 
5.53e+008 0.99998758 0.0028779743 
5.54e+008 0.99998762 0.0028727796 
5.55e+008 0.99998767 0.0028676036 
5.56e+008 0.99998771 0.0028624462 
5.57e+008 0.99998775 0.0028573074 
5.58e+008 0.9999878 0.0028521869 
5.59e+008 0.99998784 0.0028470848 
5.6e+008 0.99998788 0.0028420009 
5.61e+008 0.99998793 0.0028369351 
5.62e+008 0.99998797 0.0028318874 
5.63e+008 0.99998801 0.0028268576 
5.64e+008 0.99998806 0.0028218456 
5.65e+008 0.9999881 0.0028168514 
5.66e+008 0.99998814 0.0028118748 
5.67e+008 0.99998818 0.0028069157 
5.68e+008 0.99998822 0.0028019741 
5.69e+008 0.99998826 0.0027970499 
5.7e+008 0.99998831 0.002792143 
5.71e+008 0.99998835 0.0027872533 
5.72e+008 0.99998839 0.0027823806 
5.73e+008 0.99998843 0.002777525 
5.74e+008 0.99998847 0.0027726862 
5.75e+008 0.99998851 0.0027678643 
5.76e+008 0.99998855 0.0027630592 
5.77e+008 0.99998859 0.0027582707 
5.78e+008 0.99998863 0.0027534988 
5.79e+008 0.99998867 0.0027487433 
5.8e+008 0.99998871 0.0027440043 
5.81e+008 0.99998874 0.0027392815 
5.82e+008 0.99998878 0.002734575 
5.83e+008 0.99998882 0.0027298846 
5.84e+008 0.99998886 0.0027252103 
5.85e+008 0.9999889 0.002720552 
5.86e+008 0.99998894 0.0027159096 
5.87e+008 0.99998897 0.002711283 
5.88e+008 0.99998901 0.0027066721 
5.89e+008 0.99998905 0.0027020769 
5.9e+008 0.99998909 0.0026974972 
5.91e+008 0.99998912 0.0026929331 
5.92e+008 0.99998916 0.0026883844 
5.93e+008 0.9999892 0.002683851 
5.94e+008 0.99998923 0.0026793329 
5.95e+008 0.99998927 0.0026748299 
5.96e+008 0.9999893 0.0026703421 
5.97e+008 0.99998934 0.0026658693 
5.98e+008 0.99998938 0.0026614115 
5.99e+008 0.99998941 0.0026569685 
6e+008 0.99998945 0.0026525404 
6.01e+008 0.99998948 0.002648127 
6.02e+008 0.99998952 0.0026437282 
6.03e+008 0.99998955 0.0026393441 
6.04e+008 0.99998959 0.0026349744 
6.05e+008 0.99998962 0.0026306193 
6.06e+008 0.99998965 0.0026262784 
6.07e+008 0.99998969 0.0026219519 
6.08e+008 0.99998972 0.0026176396 
6.09e+008 0.99998976 0.0026133415 
6.1e+008 0.99998979 0.0026090575 
6.11e+008 0.99998982 0.0026047875 
6.12e+008 0.99998986 0.0026005314 
6.13e+008 0.99998989 0.0025962892 
6.14e+008 0.99998992 0.0025920609 
6.15e+008 0.99998995 0.0025878463 
6.16e+008 0.99998999 0.0025836453 
6.17e+008 0.99999002 0.002579458 
6.18e+008 0.99999005 0.0025752843 
6.19e+008 0.99999008 0.002571124 
6.2e+008 0.99999012 0.0025669772 
6.21e+008 0.99999015 0.0025628437 
6.22e+008 0.99999018 0.0025587234 
6.23e+008 0.99999021 0.0025546165 
6.24e+008 0.99999024 0.0025505227 
6.25e+008 0.99999027 0.0025464419 
6.26e+008 0.9999903 0.0025423743 
6.27e+008 0.99999034 0.0025383196 
6.28e+008 0.99999037 0.0025342778 
6.29e+008 0.9999904 0.0025302488 
6.3e+008 0.99999043 0.0025262327 
6.31e+008 0.99999046 0.0025222292 
6.32e+008 0.99999049 0.0025182385 
6.33e+008 0.99999052 0.0025142603 
6.34e+008 0.99999055 0.0025102947 
6.35e+008 0.99999058 0.0025063416 
6.36e+008 0.99999061 0.002502401 
6.37e+008 0.99999064 0.0024984726 
6.38e+008 0.99999067 0.0024945567 
6.39e+008 0.99999069 0.0024906529 
6.4e+008 0.99999072 0.0024867614 
6.41e+008 0.99999075 0.002482882 
6.42e+008 0.99999078 0.0024790147 
6.43e+008 0.99999081 0.0024751594 
6.44e+008 0.99999084 0.0024713161 
6.45e+008 0.99999087 0.0024674847 
6.46e+008 0.9999909 0.0024636652 
6.47e+008 0.99999092 0.0024598574 
6.48e+008 0.99999095 0.0024560615 
6.49e+008 0.99999098 0.0024522772 
6.5e+008 0.99999101 0.0024485046 
6.51e+008 0.99999103 0.0024447435 
6.52e+008 0.99999106 0.002440994 
6.53e+008 0.99999109 0.002437256 
6.54e+008 0.99999112 0.0024335294 
6.55e+008 0.99999114 0.0024298142 
6.56e+008 0.99999117 0.0024261103 
6.57e+008 0.9999912 0.0024224177 
6.58e+008 0.99999122 0.0024187363 
6.59e+008 0.99999125 0.0024150661 
6.6e+008 0.99999128 0.002411407 
6.61e+008 0.9999913 0.002407759 
6.62e+008 0.99999133 0.002404122 
6.63e+008 0.99999136 0.0024004959 
6.64e+008 0.99999138 0.0023968808 
6.65e+008 0.99999141 0.0023932766 
6.66e+008 0.99999143 0.0023896832 
6.67e+008 0.99999146 0.0023861005 
6.68e+008 0.99999149 0.0023825286 
6.69e+008 0.99999151 0.0023789674 
6.7e+008 0.99999154 0.0023754168 
6.71e+008 0.99999156 0.0023718767 
6.72e+008 0.99999159 0.0023683472 
6.73e+008 0.99999161 0.0023648282 
6.74e+008 0.99999164 0.0023613197 
6.75e+008 0.99999166 0.0023578215 
6.76e+008 0.99999169 0.0023543337 
6.77e+008 0.99999171 0.0023508562 
6.78e+008 0.99999173 0.0023473889 
6.79e+008 0.99999176 0.0023439319 
6.8e+008 0.99999178 0.002340485 
6.81e+008 0.99999181 0.0023370483 
6.82e+008 0.99999183 0.0023336216 
6.83e+008 0.99999186 0.002330205 
6.84e+008 0.99999188 0.0023267983 
6.85e+008 0.9999919 0.0023234016 
6.86e+008 0.99999193 0.0023200148 
6.87e+008 0.99999195 0.0023166379 
6.88e+008 0.99999197 0.0023132707 
6.89e+008 0.999992 0.0023099134 
6.9e+008 0.99999202 0.0023065658 
6.91e+008 0.99999204 0.0023032278 
6.92e+008 0.99999207 0.0022998996 
6.93e+008 0.99999209 0.0022965809 
6.94e+008 0.99999211 0.0022932718 
6.95e+008 0.99999213 0.0022899722 
6.96e+008 0.99999216 0.002286682 
6.97e+008 0.99999218 0.0022834014 
6.98e+008 0.9999922 0.0022801301 
6.99e+008 0.99999222 0.0022768682 
7e+008 0.99999225 0.0022736156 
7.01e+008 0.99999227 0.0022703723 
7.02e+008 0.99999229 0.0022671382 
7.03e+008 0.99999231 0.0022639133 
7.04e+008 0.99999233 0.0022606976 
7.05e+008 0.99999236 0.002257491 
7.06e+008 0.99999238 0.0022542935 
7.07e+008 0.9999924 0.0022511051 
7.08e+008 0.99999242 0.0022479256 
7.09e+008 0.99999244 0.0022447551 
7.1e+008 0.99999246 0.0022415936 
7.11e+008 0.99999248 0.0022384409 
7.12e+008 0.99999251 0.0022352971 
7.13e+008 0.99999253 0.0022321621 
7.14e+008 0.99999255 0.0022290359 
7.15e+008 0.99999257 0.0022259184 
7.16e+008 0.99999259 0.0022228097 
7.17e+008 0.99999261 0.0022197096 
7.18e+008 0.99999263 0.0022166182 
7.19e+008 0.99999265 0.0022135353 
7.2e+008 0.99999267 0.002210461 
7.21e+008 0.99999269 0.0022073953 
7.22e+008 0.99999271 0.002204338 
7.23e+008 0.99999273 0.0022012892 
7.24e+008 0.99999275 0.0021982488 
7.25e+008 0.99999277 0.0021952168 
7.26e+008 0.99999279 0.0021921931 
7.27e+008 0.99999281 0.0021891778 
7.28e+008 0.99999283 0.0021861708 
7.29e+008 0.99999285 0.002183172 
7.3e+008 0.99999287 0.0021801814 
7.31e+008 0.99999289 0.002177199 
7.32e+008 0.99999291 0.0021742247 
7.33e+008 0.99999293 0.0021712586 
7.34e+008 0.99999295 0.0021683005 
7.35e+008 0.99999297 0.0021653505 
7.36e+008 0.99999299 0.0021624085 
7.37e+008 0.999993 0.0021594745 
7.38e+008 0.99999302 0.0021565485 
7.39e+008 0.99999304 0.0021536303 
7.4e+008 0.99999306 0.0021507201 
7.41e+008 0.99999308 0.0021478177 
7.42e+008 0.9999931 0.0021449231 
7.43e+008 0.99999312 0.0021420363 
7.44e+008 0.99999314 0.0021391573 
7.45e+008 0.99999315 0.002136286 
7.46e+008 0.99999317 0.0021334224 
7.47e+008 0.99999319 0.0021305665 
7.48e+008 0.99999321 0.0021277182 
7.49e+008 0.99999323 0.0021248775 
7.5e+008 0.99999325 0.0021220444 
7.51e+008 0.99999326 0.0021192188 
7.52e+008 0.99999328 0.0021164008 
7.53e+008 0.9999933 0.0021135902 
7.54e+008 0.99999332 0.0021107871 
7.55e+008 0.99999333 0.0021079914 
7.56e+008 0.99999335 0.0021052031 
7.57e+008 0.99999337 0.0021024222 
7.58e+008 0.99999339 0.0020996486 
7.59e+008 0.9999934 0.0020968823 
7.6e+008 0.99999342 0.0020941233 
7.61e+008 0.99999344 0.0020913716 
7.62e+008 0.99999346 0.002088627 
7.63e+008 0.99999347 0.0020858897 
7.64e+008 0.99999349 0.0020831595 
7.65e+008 0.99999351 0.0020804365 
7.66e+008 0.99999352 0.0020777206 
7.67e+008 0.99999354 0.0020750117 
7.68e+008 0.99999356 0.00207231 
7.69e+008 0.99999357 0.0020696152 
7.7e+008 0.99999359 0.0020669274 
7.71e+008 0.99999361 0.0020642467 
7.72e+008 0.99999362 0.0020615728 
7.73e+008 0.99999364 0.0020589059 
7.74e+008 0.99999366 0.0020562459 
7.75e+008 0.99999367 0.0020535927 
7.76e+008 0.99999369 0.0020509464 
7.77e+008 0.99999371 0.0020483068 
7.78e+008 0.99999372 0.0020456741 
7.79e+008 0.99999374 0.0020430481 
7.8e+008 0.99999375 0.0020404289 
7.81e+008 0.99999377 0.0020378163 
7.82e+008 0.99999379 0.0020352105 
7.83e+008 0.9999938 0.0020326113 
7.84e+008 0.99999382 0.0020300187 
7.85e+008 0.99999383 0.0020274328 
7.86e+008 0.99999385 0.0020248534 
7.87e+008 0.99999387 0.0020222805 
7.88e+008 0.99999388 0.0020197142 
7.89e+008 0.9999939 0.0020171544 
7.9e+008 0.99999391 0.0020146011 
7.91e+008 0.99999393 0.0020120543 
7.92e+008 0.99999394 0.0020095139 
7.93e+008 0.99999396 0.0020069798 
7.94e+008 0.99999397 0.0020044522 
7.95e+008 0.99999399 0.0020019309 
7.96e+008 0.999994 0.001999416 
7.97e+008 0.99999402 0.0019969073 
7.98e+008 0.99999403 0.001994405 
7.99e+008 0.99999405 0.0019919089 
8e+008 0.99999406 0.0019894191 
8.01e+008 0.99999408 0.0019869354 
8.02e+008 0.99999409 0.001984458 
8.03e+008 0.99999411 0.0019819868 
8.04e+008 0.99999412 0.0019795216 
8.05e+008 0.99999414 0.0019770627 
8.06e+008 0.99999415 0.0019746098 
8.07e+008 0.99999417 0.001972163 
8.08e+008 0.99999418 0.0019697222 
8.09e+008 0.99999419 0.0019672875 
8.1e+008 0.99999421 0.0019648588 
8.11e+008 0.99999422 0.0019624361 
8.12e+008 0.99999424 0.0019600193 
8.13e+008 0.99999425 0.0019576085 
8.14e+008 0.99999427 0.0019552036 
8.15e+008 0.99999428 0.0019528046 
8.16e+008 0.99999429 0.0019504115 
8.17e+008 0.99999431 0.0019480243 
8.18e+008 0.99999432 0.0019456429 
8.19e+008 0.99999434 0.0019432673 
8.2e+008 0.99999435 0.0019408975 
8.21e+008 0.99999436 0.0019385335 
8.22e+008 0.99999438 0.0019361752 
8.23e+008 0.99999439 0.0019338226 
8.24e+008 0.9999944 0.0019314758 
8.25e+008 0.99999442 0.0019291347 
8.26e+008 0.99999443 0.0019267992 
8.27e+008 0.99999444 0.0019244694 
8.28e+008 0.99999446 0.0019221452 
8.29e+008 0.99999447 0.0019198266 
8.3e+008 0.99999448 0.0019175136 
8.31e+008 0.9999945 0.0019152061 
8.32e+008 0.99999451 0.0019129042 
8.33e+008 0.99999452 0.0019106079 
8.34e+008 0.99999454 0.001908317 
8.35e+008 0.99999455 0.0019060316 
8.36e+008 0.99999456 0.0019037517 
8.37e+008 0.99999458 0.0019014773 
8.38e+008 0.99999459 0.0018992083 
8.39e+008 0.9999946 0.0018969446 
8.4e+008 0.99999462 0.0018946864 
8.41e+008 0.99999463 0.0018924335 
8.42e+008 0.99999464 0.001890186 
8.43e+008 0.99999465 0.0018879439 
8.44e+008 0.99999467 0.001885707 