! AWR Design Environment (7670) Fri Mar 18 14:11:16 2016
! Document = 'RL'
! nPorts: 1, nXvals: 1000

# HZ Y MA R 50
!Freq MagY11 AngY11 
1000000 0.42336651 -32.141908 
2000000 0.3113385 -51.488113 
3000000 0.2343249 -62.053313 
4000000 0.18484892 -68.303016 
5000000 0.15165724 -72.343213 
6000000 0.12819573 -75.143949 
7000000 0.11085296 -77.19075 
8000000 0.097559931 -78.748274 
9000000 0.087068491 -79.97156 
10000000 0.078588363 -80.956939 
11000000 0.071597621 -81.767216 
12000000 0.065738891 -82.445004 
13000000 0.060759789 -83.02019 
14000000 0.056477277 -83.514339 
15000000 0.05275552 -83.943389 
16000000 0.049491671 -84.31937 
17000000 0.046606475 -84.651527 
18000000 0.044037898 -84.947081 
19000000 0.041736709 -85.211754 
20000000 0.039663348 -85.450135 
21000000 0.037785672 -85.665949 
22000000 0.036077295 -85.862251 
23000000 0.034516361 -86.041568 
24000000 0.033084613 -86.206011 
25000000 0.031766681 -86.357353 
26000000 0.030549537 -86.497099 
27000000 0.029422066 -86.626531 
28000000 0.028374724 -86.746748 
29000000 0.027399276 -86.858701 
30000000 0.026488574 -86.963211 
31000000 0.025636388 -87.060998 
32000000 0.024837259 -87.152688 
33000000 0.024086389 -87.238835 
34000000 0.023379538 -87.319925 
35000000 0.02271295 -87.396392 
36000000 0.022083283 -87.468619 
37000000 0.021487555 -87.536949 
38000000 0.020923097 -87.601689 
39000000 0.020387511 -87.663116 
40000000 0.019878639 -87.721475 
41000000 0.019394532 -87.776993 
42000000 0.018933428 -87.82987 
43000000 0.018493725 -87.880292 
44000000 0.018073969 -87.928424 
45000000 0.017672833 -87.974421 
46000000 0.017289105 -88.018419 
47000000 0.016921678 -88.060548 
48000000 0.016569534 -88.100924 
49000000 0.01623174 -88.139653 
50000000 0.015907438 -88.176834 
51000000 0.015595834 -88.212559 
52000000 0.015296197 -88.246911 
53000000 0.015007852 -88.279968 
54000000 0.014730172 -88.311802 
55000000 0.014462577 -88.34248 
56000000 0.014204527 -88.372062 
57000000 0.013955521 -88.400607 
58000000 0.013715091 -88.428169 
59000000 0.013482802 -88.454797 
60000000 0.013258248 -88.480539 
61000000 0.013041049 -88.505436 
62000000 0.012830849 -88.529532 
63000000 0.012627316 -88.552862 
64000000 0.012430137 -88.575464 
65000000 0.01223902 -88.597372 
66000000 0.012053689 -88.618615 
67000000 0.011873885 -88.639225 
68000000 0.011699365 -88.659229 
69000000 0.0115299 -88.678654 
70000000 0.011365273 -88.697523 
71000000 0.01120528 -88.715862 
72000000 0.011049727 -88.733691 
73000000 0.010898434 -88.751033 
74000000 0.010751226 -88.767905 
75000000 0.010607941 -88.784328 
76000000 0.010468425 -88.800319 
77000000 0.01033253 -88.815895 
78000000 0.010200117 -88.831072 
79000000 0.010071054 -88.845864 
80000000 0.009945216 -88.860287 
81000000 0.0098224833 -88.874354 
82000000 0.0097027423 -88.888078 
83000000 0.009585885 -88.901471 
84000000 0.0094718085 -88.914546 
85000000 0.0093604148 -88.927313 
86000000 0.0092516102 -88.939783 
87000000 0.0091453057 -88.951967 
88000000 0.0090414159 -88.963874 
89000000 0.0089398596 -88.975513 
90000000 0.0088405591 -88.986894 
91000000 0.00874344 -88.998025 
92000000 0.0086484312 -89.008913 
93000000 0.0085554646 -89.019568 
94000000 0.0084644753 -89.029996 
95000000 0.0083754007 -89.040205 
96000000 0.008288181 -89.050201 
97000000 0.008202759 -89.059991 
98000000 0.0081190795 -89.069581 
99000000 0.0080370899 -89.078978 
1e+008 0.0079567395 -89.088186 
1.01e+008 0.0078779795 -89.097213 
1.02e+008 0.0078007633 -89.106062 
1.03e+008 0.0077250459 -89.11474 
1.04e+008 0.0076507841 -89.123251 
1.05e+008 0.0075779363 -89.131599 
1.06e+008 0.0075064626 -89.13979 
1.07e+008 0.0074363243 -89.147829 
1.08e+008 0.0073674845 -89.155718 
1.09e+008 0.0072999073 -89.163463 
1.1e+008 0.0072335585 -89.171066 
1.11e+008 0.0071684048 -89.178533 
1.12e+008 0.0071044141 -89.185867 
1.13e+008 0.0070415557 -89.19307 
1.14e+008 0.0069797998 -89.200148 
1.15e+008 0.0069191175 -89.207102 
1.16e+008 0.0068594813 -89.213937 
1.17e+008 0.0068008641 -89.220654 
1.18e+008 0.0067432402 -89.227258 
1.19e+008 0.0066865845 -89.233751 
1.2e+008 0.0066308728 -89.240136 
1.21e+008 0.0065760817 -89.246415 
1.22e+008 0.0065221886 -89.252591 
1.23e+008 0.0064691716 -89.258667 
1.24e+008 0.0064170095 -89.264645 
1.25e+008 0.0063656818 -89.270527 
1.26e+008 0.0063151686 -89.276316 
1.27e+008 0.0062654507 -89.282013 
1.28e+008 0.0062165094 -89.287622 
1.29e+008 0.0061683268 -89.293144 
1.3e+008 0.0061208853 -89.298581 
1.31e+008 0.0060741679 -89.303935 
1.32e+008 0.0060281582 -89.309207 
1.33e+008 0.0059828402 -89.314401 
1.34e+008 0.0059381984 -89.319517 
1.35e+008 0.0058942179 -89.324557 
1.36e+008 0.005850884 -89.329523 
1.37e+008 0.0058081826 -89.334416 
1.38e+008 0.0057661 -89.339239 
1.39e+008 0.0057246227 -89.343992 
1.4e+008 0.0056837378 -89.348678 
1.41e+008 0.0056434328 -89.353297 
1.42e+008 0.0056036953 -89.35785 
1.43e+008 0.0055645135 -89.362341 
1.44e+008 0.0055258758 -89.366768 
1.45e+008 0.0054877709 -89.371135 
1.46e+008 0.0054501879 -89.375442 
1.47e+008 0.0054131162 -89.37969 
1.48e+008 0.0053765453 -89.383881 
1.49e+008 0.0053404653 -89.388016 
1.5e+008 0.0053048662 -89.392096 
1.51e+008 0.0052697385 -89.396121 
1.52e+008 0.005235073 -89.400094 
1.53e+008 0.0052008606 -89.404015 
1.54e+008 0.0051670923 -89.407884 
1.55e+008 0.0051337598 -89.411704 
1.56e+008 0.0051008545 -89.415475 
1.57e+008 0.0050683683 -89.419198 
1.58e+008 0.0050362933 -89.422874 
1.59e+008 0.0050046217 -89.426503 
1.6e+008 0.0049733459 -89.430087 
1.61e+008 0.0049424586 -89.433627 
1.62e+008 0.0049119526 -89.437123 
1.63e+008 0.0048818208 -89.440576 
1.64e+008 0.0048520564 -89.443987 
1.65e+008 0.0048226527 -89.447356 
1.66e+008 0.0047936033 -89.450685 
1.67e+008 0.0047649017 -89.453974 
1.68e+008 0.0047365417 -89.457224 
1.69e+008 0.0047085173 -89.460436 
1.7e+008 0.0046808226 -89.463609 
1.71e+008 0.0046534518 -89.466746 
1.72e+008 0.0046263991 -89.469846 
1.73e+008 0.0045996592 -89.47291 
1.74e+008 0.0045732266 -89.47594 
1.75e+008 0.004547096 -89.478934 
1.76e+008 0.0045212624 -89.481894 
1.77e+008 0.0044957206 -89.484821 
1.78e+008 0.0044704658 -89.487716 
1.79e+008 0.0044454931 -89.490577 
1.8e+008 0.0044207978 -89.493407 
1.81e+008 0.0043963754 -89.496206 
1.82e+008 0.0043722214 -89.498974 
1.83e+008 0.0043483313 -89.501712 
1.84e+008 0.0043247008 -89.50442 
1.85e+008 0.0043013258 -89.507098 
1.86e+008 0.0042782021 -89.509748 
1.87e+008 0.0042553256 -89.51237 
1.88e+008 0.0042326926 -89.514963 
1.89e+008 0.004210299 -89.51753 
1.9e+008 0.004188141 -89.520069 
1.91e+008 0.0041662151 -89.522581 
1.92e+008 0.0041445176 -89.525068 
1.93e+008 0.0041230449 -89.527529 
1.94e+008 0.0041017935 -89.529964 
1.95e+008 0.0040807601 -89.532374 
1.96e+008 0.0040599412 -89.53476 
1.97e+008 0.0040393337 -89.537121 
1.98e+008 0.0040189344 -89.539459 
1.99e+008 0.00399874 -89.541773 
2e+008 0.0039787476 -89.544064 
2.01e+008 0.0039589541 -89.546333 
2.02e+008 0.0039393565 -89.548578 
2.03e+008 0.003919952 -89.550802 
2.04e+008 0.0039007377 -89.553004 
2.05e+008 0.0038817109 -89.555184 
2.06e+008 0.0038628688 -89.557343 
2.07e+008 0.0038442087 -89.559482 
2.08e+008 0.003825728 -89.5616 
2.09e+008 0.0038074241 -89.563697 
2.1e+008 0.0037892946 -89.565775 
2.11e+008 0.0037713369 -89.567833 
2.12e+008 0.0037535485 -89.569871 
2.13e+008 0.0037359272 -89.57189 
2.14e+008 0.0037184706 -89.573891 
2.15e+008 0.0037011763 -89.575873 
2.16e+008 0.0036840422 -89.577836 
2.17e+008 0.003667066 -89.579781 
2.18e+008 0.0036502455 -89.581709 
2.19e+008 0.0036335785 -89.583619 
2.2e+008 0.0036170631 -89.585511 
2.21e+008 0.0036006972 -89.587387 
2.22e+008 0.0035844787 -89.589245 
2.23e+008 0.0035684056 -89.591087 
2.24e+008 0.003552476 -89.592913 
2.25e+008 0.003536688 -89.594722 
2.26e+008 0.0035210398 -89.596515 
2.27e+008 0.0035055293 -89.598293 
2.28e+008 0.0034901549 -89.600054 
2.29e+008 0.0034749148 -89.601801 
2.3e+008 0.0034598072 -89.603532 
2.31e+008 0.0034448304 -89.605248 
2.32e+008 0.0034299827 -89.60695 
2.33e+008 0.0034152625 -89.608637 
2.34e+008 0.003400668 -89.610309 
2.35e+008 0.0033861977 -89.611967 
2.36e+008 0.0033718501 -89.613612 
2.37e+008 0.0033576235 -89.615242 
2.38e+008 0.0033435165 -89.616858 
2.39e+008 0.0033295275 -89.618461 
2.4e+008 0.0033156551 -89.620051 
2.41e+008 0.0033018978 -89.621628 
2.42e+008 0.0032882542 -89.623191 
2.43e+008 0.0032747228 -89.624742 
2.44e+008 0.0032613024 -89.62628 
2.45e+008 0.0032479915 -89.627805 
2.46e+008 0.0032347889 -89.629318 
2.47e+008 0.0032216931 -89.630819 
2.48e+008 0.0032087029 -89.632307 
2.49e+008 0.0031958171 -89.633784 
2.5e+008 0.0031830344 -89.635249 
2.51e+008 0.0031703535 -89.636702 
2.52e+008 0.0031577732 -89.638143 
2.53e+008 0.0031452924 -89.639574 
2.54e+008 0.0031329098 -89.640993 
2.55e+008 0.0031206244 -89.6424 
2.56e+008 0.0031084349 -89.643797 
2.57e+008 0.0030963403 -89.645183 
2.58e+008 0.0030843394 -89.646558 
2.59e+008 0.0030724312 -89.647923 
2.6e+008 0.0030606146 -89.649277 
2.61e+008 0.0030488886 -89.650621 
2.62e+008 0.003037252 -89.651954 
2.63e+008 0.003025704 -89.653278 
2.64e+008 0.0030142434 -89.654591 
2.65e+008 0.0030028693 -89.655894 
2.66e+008 0.0029915807 -89.657188 
2.67e+008 0.0029803767 -89.658472 
2.68e+008 0.0029692563 -89.659746 
2.69e+008 0.0029582185 -89.661011 
2.7e+008 0.0029472626 -89.662267 
2.71e+008 0.0029363874 -89.663513 
2.72e+008 0.0029255923 -89.66475 
2.73e+008 0.0029148762 -89.665978 
2.74e+008 0.0029042383 -89.667197 
2.75e+008 0.0028936778 -89.668407 
2.76e+008 0.0028831938 -89.669608 
2.77e+008 0.0028727855 -89.670801 
2.78e+008 0.0028624521 -89.671985 
2.79e+008 0.0028521927 -89.673161 
2.8e+008 0.0028420066 -89.674328 
2.81e+008 0.0028318931 -89.675487 
2.82e+008 0.0028218512 -89.676638 
2.83e+008 0.0028118803 -89.677781 
2.84e+008 0.0028019796 -89.678915 
2.85e+008 0.0027921484 -89.680042 
2.86e+008 0.002782386 -89.68116 
2.87e+008 0.0027726916 -89.682271 
2.88e+008 0.0027630645 -89.683375 
2.89e+008 0.002753504 -89.68447 
2.9e+008 0.0027440094 -89.685558 
2.91e+008 0.0027345801 -89.686639 
2.92e+008 0.0027252154 -89.687712 
2.93e+008 0.0027159146 -89.688778 
2.94e+008 0.0027066771 -89.689836 
2.95e+008 0.0026975022 -89.690888 
2.96e+008 0.0026883892 -89.691932 
2.97e+008 0.0026793377 -89.692969 
2.98e+008 0.0026703469 -89.693999 
2.99e+008 0.0026614162 -89.695023 
3e+008 0.0026525451 -89.696039 
3.01e+008 0.0026437329 -89.697049 
3.02e+008 0.002634979 -89.698052 
3.03e+008 0.002626283 -89.699049 
3.04e+008 0.0026176441 -89.700039 
3.05e+008 0.0026090619 -89.701022 
3.06e+008 0.0026005358 -89.701999 
3.07e+008 0.0025920652 -89.70297 
3.08e+008 0.0025836496 -89.703934 
3.09e+008 0.0025752885 -89.704892 
3.1e+008 0.0025669814 -89.705844 
3.11e+008 0.0025587276 -89.70679 
3.12e+008 0.0025505268 -89.70773 
3.13e+008 0.0025423784 -89.708664 
3.14e+008 0.0025342818 -89.709591 
3.15e+008 0.0025262367 -89.710513 
3.16e+008 0.0025182425 -89.711429 
3.17e+008 0.0025102987 -89.71234 
3.18e+008 0.0025024049 -89.713244 
3.19e+008 0.0024945605 -89.714143 
3.2e+008 0.0024867652 -89.715037 
3.21e+008 0.0024790185 -89.715924 
3.22e+008 0.0024713199 -89.716806 
3.23e+008 0.0024636689 -89.717683 
3.24e+008 0.0024560652 -89.718555 
3.25e+008 0.0024485082 -89.719421 
3.26e+008 0.0024409976 -89.720281 
3.27e+008 0.002433533 -89.721137 
3.28e+008 0.0024261139 -89.721987 
3.29e+008 0.0024187398 -89.722832 
3.3e+008 0.0024114105 -89.723672 
3.31e+008 0.0024041254 -89.724506 
3.32e+008 0.0023968843 -89.725336 
3.33e+008 0.0023896866 -89.726161 
3.34e+008 0.002382532 -89.726981 
3.35e+008 0.0023754201 -89.727796 
3.36e+008 0.0023683506 -89.728606 
3.37e+008 0.002361323 -89.729411 
3.38e+008 0.002354337 -89.730212 
3.39e+008 0.0023473922 -89.731008 
3.4e+008 0.0023404882 -89.731799 
3.41e+008 0.0023336248 -89.732585 
3.42e+008 0.0023268015 -89.733367 
3.43e+008 0.0023200179 -89.734145 
3.44e+008 0.0023132738 -89.734917 
3.45e+008 0.0023065688 -89.735686 
3.46e+008 0.0022999026 -89.73645 
3.47e+008 0.0022932748 -89.737209 
3.48e+008 0.002286685 -89.737964 
3.49e+008 0.0022801331 -89.738715 
3.5e+008 0.0022736185 -89.739462 
3.51e+008 0.0022671411 -89.740204 
3.52e+008 0.0022607005 -89.740942 
3.53e+008 0.0022542964 -89.741676 
3.54e+008 0.0022479285 -89.742406 
3.55e+008 0.0022415964 -89.743131 
3.56e+008 0.0022352999 -89.743853 
3.57e+008 0.0022290387 -89.74457 
3.58e+008 0.0022228124 -89.745284 
3.59e+008 0.0022166209 -89.745993 
3.6e+008 0.0022104637 -89.746699 
3.61e+008 0.0022043407 -89.7474 
3.62e+008 0.0021982514 -89.748098 
3.63e+008 0.0021921958 -89.748792 
3.64e+008 0.0021861734 -89.749482 
3.65e+008 0.002180184 -89.750169 
3.66e+008 0.0021742273 -89.750851 
3.67e+008 0.0021683031 -89.75153 
3.68e+008 0.0021624111 -89.752205 
3.69e+008 0.002156551 -89.752877 
3.7e+008 0.0021507226 -89.753545 
3.71e+008 0.0021449256 -89.754209 
3.72e+008 0.0021391598 -89.75487 
3.73e+008 0.0021334249 -89.755527 
3.74e+008 0.0021277206 -89.75618 
3.75e+008 0.0021220468 -89.756831 
3.76e+008 0.0021164032 -89.757477 
3.77e+008 0.0021107895 -89.758121 
3.78e+008 0.0021052055 -89.758761 
3.79e+008 0.0020996509 -89.759397 
3.8e+008 0.0020941256 -89.76003 
3.81e+008 0.0020886293 -89.76066 
3.82e+008 0.0020831618 -89.761287 
3.83e+008 0.0020777228 -89.76191 
3.84e+008 0.0020723122 -89.76253 
3.85e+008 0.0020669297 -89.763147 
3.86e+008 0.002061575 -89.76376 
3.87e+008 0.002056248 -89.764371 
3.88e+008 0.0020509485 -89.764978 
3.89e+008 0.0020456762 -89.765582 
3.9e+008 0.002040431 -89.766183 
3.91e+008 0.0020352126 -89.766781 
3.92e+008 0.0020300208 -89.767376 
3.93e+008 0.0020248554 -89.767968 
3.94e+008 0.0020197163 -89.768557 
3.95e+008 0.0020146032 -89.769143 
3.96e+008 0.0020095159 -89.769726 
3.97e+008 0.0020044542 -89.770306 
3.98e+008 0.001999418 -89.770883 
3.99e+008 0.001994407 -89.771457 
4e+008 0.001989421 -89.772029 
4.01e+008 0.00198446 -89.772597 
4.02e+008 0.0019795236 -89.773163 
4.03e+008 0.0019746117 -89.773726 
4.04e+008 0.0019697241 -89.774286 
4.05e+008 0.0019648607 -89.774843 
4.06e+008 0.0019600212 -89.775398 
4.07e+008 0.0019552055 -89.775949 
4.08e+008 0.0019504134 -89.776499 
4.09e+008 0.0019456447 -89.777045 
4.1e+008 0.0019408993 -89.777589 
4.11e+008 0.001936177 -89.77813 
4.12e+008 0.0019314776 -89.778668 
4.13e+008 0.001926801 -89.779204 
4.14e+008 0.0019221469 -89.779738 
4.15e+008 0.0019175153 -89.780268 
4.16e+008 0.001912906 -89.780797 
4.17e+008 0.0019083188 -89.781322 
4.18e+008 0.0019037535 -89.781845 
4.19e+008 0.00189921 -89.782366 
4.2e+008 0.0018946881 -89.782884 
4.21e+008 0.0018901877 -89.7834 
4.22e+008 0.0018857087 -89.783913 
4.23e+008 0.0018812508 -89.784424 
4.24e+008 0.0018768139 -89.784932 
4.25e+008 0.001872398 -89.785438 
4.26e+008 0.0018680027 -89.785942 
4.27e+008 0.0018636281 -89.786443 
4.28e+008 0.0018592739 -89.786942 
4.29e+008 0.00185494 -89.787439 
4.3e+008 0.0018506262 -89.787933 
4.31e+008 0.0018463325 -89.788425 
4.32e+008 0.0018420586 -89.788915 
4.33e+008 0.0018378045 -89.789403 
4.34e+008 0.00183357 -89.789888 
4.35e+008 0.0018293549 -89.790371 
4.36e+008 0.0018251592 -89.790852 
4.37e+008 0.0018209827 -89.79133 
4.38e+008 0.0018168253 -89.791807 
4.39e+008 0.0018126868 -89.792281 
4.4e+008 0.0018085671 -89.792753 
4.41e+008 0.0018044661 -89.793223 
4.42e+008 0.0018003836 -89.793691 
4.43e+008 0.0017963196 -89.794156 
4.44e+008 0.0017922739 -89.79462 
4.45e+008 0.0017882464 -89.795082 
4.46e+008 0.0017842369 -89.795541 
4.47e+008 0.0017802453 -89.795998 
4.48e+008 0.0017762716 -89.796454 
4.49e+008 0.0017723156 -89.796907 
4.5e+008 0.0017683772 -89.797358 
4.51e+008 0.0017644562 -89.797808 
4.52e+008 0.0017605526 -89.798255 
4.53e+008 0.0017566662 -89.7987 
4.54e+008 0.001752797 -89.799144 
4.55e+008 0.0017489447 -89.799585 
4.56e+008 0.0017451094 -89.800025 
4.57e+008 0.0017412908 -89.800462 
4.58e+008 0.0017374889 -89.800898 
4.59e+008 0.0017337036 -89.801332 
4.6e+008 0.0017299347 -89.801764 
4.61e+008 0.0017261822 -89.802194 
4.62e+008 0.0017224459 -89.802622 
4.63e+008 0.0017187257 -89.803048 
4.64e+008 0.0017150216 -89.803473 
4.65e+008 0.0017113335 -89.803895 
4.66e+008 0.0017076611 -89.804316 
4.67e+008 0.0017040045 -89.804735 
4.68e+008 0.0017003635 -89.805152 
4.69e+008 0.001696738 -89.805568 
4.7e+008 0.001693128 -89.805981 
4.71e+008 0.0016895333 -89.806393 
4.72e+008 0.0016859538 -89.806804 
4.73e+008 0.0016823895 -89.807212 
4.74e+008 0.0016788401 -89.807619 
4.75e+008 0.0016753058 -89.808024 
4.76e+008 0.0016717863 -89.808427 
4.77e+008 0.0016682815 -89.808829 
4.78e+008 0.0016647914 -89.809229 
4.79e+008 0.0016613159 -89.809627 
4.8e+008 0.0016578549 -89.810023 
4.81e+008 0.0016544082 -89.810418 
4.82e+008 0.0016509759 -89.810812 
4.83e+008 0.0016475578 -89.811203 
4.84e+008 0.0016441537 -89.811594 
4.85e+008 0.0016407638 -89.811982 
4.86e+008 0.0016373878 -89.812369 
4.87e+008 0.0016340256 -89.812754 
4.88e+008 0.0016306772 -89.813138 
4.89e+008 0.0016273425 -89.81352 
4.9e+008 0.0016240215 -89.813901 
4.91e+008 0.0016207139 -89.81428 
4.92e+008 0.0016174198 -89.814657 
4.93e+008 0.0016141391 -89.815033 
4.94e+008 0.0016108716 -89.815407 
4.95e+008 0.0016076174 -89.81578 
4.96e+008 0.0016043762 -89.816152 
4.97e+008 0.0016011482 -89.816522 
4.98e+008 0.001597933 -89.81689 
4.99e+008 0.0015947308 -89.817257 
5e+008 0.0015915414 -89.817622 
5.01e+008 0.0015883647 -89.817987 
5.02e+008 0.0015852006 -89.818349 
5.03e+008 0.0015820492 -89.81871 
5.04e+008 0.0015789102 -89.81907 
5.05e+008 0.0015757837 -89.819428 
5.06e+008 0.0015726695 -89.819785 
5.07e+008 0.0015695676 -89.820141 
5.08e+008 0.001566478 -89.820495 
5.09e+008 0.0015634004 -89.820847 
5.1e+008 0.001560335 -89.821198 
5.11e+008 0.0015572815 -89.821548 
5.12e+008 0.00155424 -89.821897 
5.13e+008 0.0015512103 -89.822244 
5.14e+008 0.0015481924 -89.82259 
5.15e+008 0.0015451862 -89.822934 
5.16e+008 0.0015421917 -89.823278 
5.17e+008 0.0015392088 -89.823619 
5.18e+008 0.0015362374 -89.82396 
5.19e+008 0.0015332774 -89.824299 
5.2e+008 0.0015303288 -89.824637 
5.21e+008 0.0015273916 -89.824974 
5.22e+008 0.0015244655 -89.825309 
5.23e+008 0.0015215507 -89.825643 
5.24e+008 0.001518647 -89.825976 
5.25e+008 0.0015157544 -89.826307 
5.26e+008 0.0015128728 -89.826637 
5.27e+008 0.0015100021 -89.826966 
5.28e+008 0.0015071422 -89.827294 
5.29e+008 0.0015042932 -89.82762 
5.3e+008 0.001501455 -89.827946 
5.31e+008 0.0014986274 -89.82827 
5.32e+008 0.0014958104 -89.828592 
5.33e+008 0.0014930041 -89.828914 
5.34e+008 0.0014902082 -89.829234 
5.35e+008 0.0014874228 -89.829554 
5.36e+008 0.0014846478 -89.829872 
5.37e+008 0.0014818831 -89.830188 
5.38e+008 0.0014791287 -89.830504 
5.39e+008 0.0014763845 -89.830819 
5.4e+008 0.0014736505 -89.831132 
5.41e+008 0.0014709266 -89.831444 
5.42e+008 0.0014682127 -89.831755 
5.43e+008 0.0014655088 -89.832065 
5.44e+008 0.0014628149 -89.832374 
5.45e+008 0.0014601309 -89.832681 
5.46e+008 0.0014574567 -89.832988 
5.47e+008 0.0014547922 -89.833293 
5.48e+008 0.0014521375 -89.833597 
5.49e+008 0.0014494925 -89.8339 
5.5e+008 0.0014468571 -89.834202 
5.51e+008 0.0014442312 -89.834503 
5.52e+008 0.0014416149 -89.834803 
5.53e+008 0.001439008 -89.835102 
5.54e+008 0.0014364105 -89.835399 
5.55e+008 0.0014338224 -89.835696 
5.56e+008 0.0014312436 -89.835991 
5.57e+008 0.0014286741 -89.836286 
5.58e+008 0.0014261138 -89.836579 
5.59e+008 0.0014235626 -89.836872 
5.6e+008 0.0014210205 -89.837163 
5.61e+008 0.0014184875 -89.837453 
5.62e+008 0.0014159636 -89.837742 
5.63e+008 0.0014134486 -89.838031 
5.64e+008 0.0014109425 -89.838318 
5.65e+008 0.0014084452 -89.838604 
5.66e+008 0.0014059568 -89.838889 
5.67e+008 0.0014034772 -89.839173 
5.68e+008 0.0014010063 -89.839456 
5.69e+008 0.0013985441 -89.839738 
5.7e+008 0.0013960905 -89.84002 
5.71e+008 0.0013936456 -89.8403 
5.72e+008 0.0013912092 -89.840579 
5.73e+008 0.0013887812 -89.840857 
5.74e+008 0.0013863618 -89.841134 
5.75e+008 0.0013839507 -89.841411 
5.76e+008 0.0013815481 -89.841686 
5.77e+008 0.0013791537 -89.84196 
5.78e+008 0.0013767676 -89.842234 
5.79e+008 0.0013743898 -89.842506 
5.8e+008 0.0013720202 -89.842778 
5.81e+008 0.0013696587 -89.843048 
5.82e+008 0.0013673054 -89.843318 
5.83e+008 0.0013649601 -89.843587 
5.84e+008 0.0013626229 -89.843855 
5.85e+008 0.0013602936 -89.844122 
5.86e+008 0.0013579723 -89.844388 
5.87e+008 0.0013556589 -89.844653 
5.88e+008 0.0013533534 -89.844917 
5.89e+008 0.0013510557 -89.84518 
5.9e+008 0.0013487658 -89.845443 
5.91e+008 0.0013464836 -89.845704 
5.92e+008 0.0013442092 -89.845965 
5.93e+008 0.0013419424 -89.846225 
5.94e+008 0.0013396833 -89.846483 
5.95e+008 0.0013374317 -89.846741 
5.96e+008 0.0013351877 -89.846999 
5.97e+008 0.0013329512 -89.847255 
5.98e+008 0.0013307222 -89.84751 
5.99e+008 0.0013285007 -89.847765 
6e+008 0.0013262865 -89.848019 
6.01e+008 0.0013240797 -89.848271 
6.02e+008 0.0013218803 -89.848524 
6.03e+008 0.0013196881 -89.848775 
6.04e+008 0.0013175032 -89.849025 
6.05e+008 0.0013153256 -89.849275 
6.06e+008 0.0013131551 -89.849523 
6.07e+008 0.0013109917 -89.849771 
6.08e+008 0.0013088355 -89.850018 
6.09e+008 0.0013066864 -89.850265 
6.1e+008 0.0013045443 -89.85051 
6.11e+008 0.0013024092 -89.850755 
6.12e+008 0.0013002811 -89.850999 
6.13e+008 0.0012981599 -89.851242 
6.14e+008 0.0012960457 -89.851484 
6.15e+008 0.0012939383 -89.851725 
6.16e+008 0.0012918378 -89.851966 
6.17e+008 0.001289744 -89.852206 
6.18e+008 0.0012876571 -89.852445 
6.19e+008 0.0012855769 -89.852684 
6.2e+008 0.0012835034 -89.852921 
6.21e+008 0.0012814366 -89.853158 
6.22e+008 0.0012793764 -89.853394 
6.23e+008 0.0012773228 -89.853629 
6.24e+008 0.0012752758 -89.853864 
6.25e+008 0.0012732354 -89.854098 
6.26e+008 0.0012712015 -89.854331 
6.27e+008 0.0012691741 -89.854563 
6.28e+008 0.0012671531 -89.854795 
6.29e+008 0.0012651386 -89.855026 
6.3e+008 0.0012631304 -89.855256 
6.31e+008 0.0012611287 -89.855485 
6.32e+008 0.0012591332 -89.855714 
6.33e+008 0.0012571441 -89.855942 
6.34e+008 0.0012551612 -89.856169 
6.35e+008 0.0012531846 -89.856395 
6.36e+008 0.0012512142 -89.856621 
6.37e+008 0.00124925 -89.856846 
6.38e+008 0.0012472919 -89.857071 
6.39e+008 0.00124534 -89.857294 
6.4e+008 0.0012433941 -89.857517 
6.41e+008 0.0012414544 -89.85774 
6.42e+008 0.0012395207 -89.857961 
6.43e+008 0.001237593 -89.858182 
6.44e+008 0.0012356713 -89.858402 
6.45e+008 0.0012337555 -89.858622 
6.46e+008 0.0012318457 -89.858841 
6.47e+008 0.0012299417 -89.859059 
6.48e+008 0.0012280437 -89.859276 
6.49e+008 0.0012261515 -89.859493 
6.5e+008 0.0012242651 -89.859709 
6.51e+008 0.0012223845 -89.859925 
6.52e+008 0.0012205097 -89.86014 
6.53e+008 0.0012186407 -89.860354 
6.54e+008 0.0012167773 -89.860567 
6.55e+008 0.0012149196 -89.86078 
6.56e+008 0.0012130676 -89.860993 
6.57e+008 0.0012112213 -89.861204 
6.58e+008 0.0012093805 -89.861415 
6.59e+008 0.0012075454 -89.861625 
6.6e+008 0.0012057158 -89.861835 
6.61e+008 0.0012038917 -89.862044 
6.62e+008 0.0012020731 -89.862252 
6.63e+008 0.0012002601 -89.86246 
6.64e+008 0.0011984525 -89.862667 
6.65e+008 0.0011966503 -89.862874 
6.66e+008 0.0011948535 -89.86308 
6.67e+008 0.0011930621 -89.863285 
6.68e+008 0.0011912761 -89.86349 
6.69e+008 0.0011894955 -89.863694 
6.7e+008 0.0011877201 -89.863897 
6.71e+008 0.00118595 -89.8641 
6.72e+008 0.0011841852 -89.864302 
6.73e+008 0.0011824257 -89.864504 
6.74e+008 0.0011806714 -89.864705 
6.75e+008 0.0011789222 -89.864905 
6.76e+008 0.0011771783 -89.865105 
6.77e+008 0.0011754395 -89.865304 
6.78e+008 0.0011737058 -89.865503 
6.79e+008 0.0011719772 -89.865701 
6.8e+008 0.0011702537 -89.865899 
6.81e+008 0.0011685353 -89.866096 
6.82e+008 0.0011668219 -89.866292 
6.83e+008 0.0011651136 -89.866488 
6.84e+008 0.0011634102 -89.866683 
6.85e+008 0.0011617118 -89.866878 
6.86e+008 0.0011600183 -89.867072 
6.87e+008 0.0011583298 -89.867265 
6.88e+008 0.0011566462 -89.867458 
6.89e+008 0.0011549675 -89.86765 
6.9e+008 0.0011532936 -89.867842 
6.91e+008 0.0011516246 -89.868033 
6.92e+008 0.0011499604 -89.868224 
6.93e+008 0.001148301 -89.868414 
6.94e+008 0.0011466464 -89.868604 
6.95e+008 0.0011449966 -89.868793 
6.96e+008 0.0011433515 -89.868981 
6.97e+008 0.0011417111 -89.869169 
6.98e+008 0.0011400754 -89.869357 
6.99e+008 0.0011384444 -89.869544 
7e+008 0.0011368181 -89.86973 
7.01e+008 0.0011351964 -89.869916 
7.02e+008 0.0011335793 -89.870101 
7.03e+008 0.0011319668 -89.870286 
7.04e+008 0.0011303589 -89.87047 
7.05e+008 0.0011287556 -89.870654 
7.06e+008 0.0011271568 -89.870837 
7.07e+008 0.0011255625 -89.87102 
7.08e+008 0.0011239727 -89.871202 
7.09e+008 0.0011223875 -89.871384 
7.1e+008 0.0011208066 -89.871565 
7.11e+008 0.0011192303 -89.871746 
7.12e+008 0.0011176583 -89.871926 
7.13e+008 0.0011160908 -89.872105 
7.14e+008 0.0011145276 -89.872284 
7.15e+008 0.0011129689 -89.872463 
7.16e+008 0.0011114145 -89.872641 
7.17e+008 0.0011098644 -89.872819 
7.18e+008 0.0011083186 -89.872996 
7.19e+008 0.0011067771 -89.873173 
7.2e+008 0.00110524 -89.873349 
7.21e+008 0.001103707 -89.873524 
7.22e+008 0.0011021784 -89.8737 
7.23e+008 0.0011006539 -89.873874 
7.24e+008 0.0010991337 -89.874048 
7.25e+008 0.0010976177 -89.874222 
7.26e+008 0.0010961058 -89.874395 
7.27e+008 0.0010945981 -89.874568 
7.28e+008 0.0010930945 -89.87474 
7.29e+008 0.0010915951 -89.874912 
7.3e+008 0.0010900998 -89.875084 
7.31e+008 0.0010886085 -89.875255 
7.32e+008 0.0010871214 -89.875425 
7.33e+008 0.0010856383 -89.875595 
7.34e+008 0.0010841592 -89.875764 
7.35e+008 0.0010826841 -89.875933 
7.36e+008 0.0010812131 -89.876102 
7.37e+008 0.0010797461 -89.87627 
7.38e+008 0.001078283 -89.876438 
7.39e+008 0.0010768239 -89.876605 
7.4e+008 0.0010753687 -89.876772 
7.41e+008 0.0010739175 -89.876938 
7.42e+008 0.0010724702 -89.877104 
7.43e+008 0.0010710268 -89.877269 
7.44e+008 0.0010695872 -89.877434 
7.45e+008 0.0010681515 -89.877599 
7.46e+008 0.0010667197 -89.877763 
7.47e+008 0.0010652917 -89.877926 
7.48e+008 0.0010638675 -89.87809 
7.49e+008 0.0010624472 -89.878252 
7.5e+008 0.0010610306 -89.878415 
7.51e+008 0.0010596177 -89.878577 
7.52e+008 0.0010582087 -89.878738 
7.53e+008 0.0010568034 -89.878899 
7.54e+008 0.0010554018 -89.87906 
7.55e+008 0.0010540039 -89.87922 
7.56e+008 0.0010526097 -89.87938 
7.57e+008 0.0010512192 -89.879539 
7.58e+008 0.0010498324 -89.879698 
7.59e+008 0.0010484492 -89.879856 
7.6e+008 0.0010470697 -89.880015 
7.61e+008 0.0010456938 -89.880172 
7.62e+008 0.0010443215 -89.880329 
7.63e+008 0.0010429528 -89.880486 
7.64e+008 0.0010415877 -89.880643 
7.65e+008 0.0010402261 -89.880799 
7.66e+008 0.0010388681 -89.880954 
7.67e+008 0.0010375137 -89.88111 
7.68e+008 0.0010361628 -89.881264 
7.69e+008 0.0010348154 -89.881419 
7.7e+008 0.0010334714 -89.881573 
7.71e+008 0.001032131 -89.881726 
7.72e+008 0.0010307941 -89.88188 
7.73e+008 0.0010294606 -89.882032 
7.74e+008 0.0010281305 -89.882185 
7.75e+008 0.0010268039 -89.882337 
7.76e+008 0.0010254807 -89.882488 
7.77e+008 0.0010241609 -89.88264 
7.78e+008 0.0010228445 -89.882791 
7.79e+008 0.0010215315 -89.882941 
7.8e+008 0.0010202219 -89.883091 
7.81e+008 0.0010189156 -89.883241 
7.82e+008 0.0010176126 -89.88339 
7.83e+008 0.001016313 -89.883539 
7.84e+008 0.0010150167 -89.883688 
7.85e+008 0.0010137237 -89.883836 
7.86e+008 0.0010124339 -89.883984 
7.87e+008 0.0010111475 -89.884131 
7.88e+008 0.0010098643 -89.884278 
7.89e+008 0.0010085844 -89.884425 
7.9e+008 0.0010073077 -89.884571 
7.91e+008 0.0010060343 -89.884717 
7.92e+008 0.001004764 -89.884862 
7.93e+008 0.001003497 -89.885008 
7.94e+008 0.0010022331 -89.885152 
7.95e+008 0.0010009725 -89.885297 
7.96e+008 0.00099971498 -89.885441 
7.97e+008 0.00099846064 -89.885585 
7.98e+008 0.00099720944 -89.885728 
7.99e+008 0.00099596137 -89.885871 
8e+008 0.00099471643 -89.886014 
8.01e+008 0.00099347459 -89.886156 
8.02e+008 0.00099223585 -89.886298 
8.03e+008 0.00099100019 -89.88644 
8.04e+008 0.00098976761 -89.886581 
8.05e+008 0.00098853809 -89.886722 
8.06e+008 0.00098731162 -89.886862 
8.07e+008 0.00098608819 -89.887003 
8.08e+008 0.00098486779 -89.887142 
8.09e+008 0.0009836504 -89.887282 
8.1e+008 0.00098243602 -89.887421 
8.11e+008 0.00098122464 -89.88756 
8.12e+008 0.00098001624 -89.887698 
8.13e+008 0.00097881081 -89.887836 
8.14e+008 0.00097760835 -89.887974 
8.15e+008 0.00097640883 -89.888112 
8.16e+008 0.00097521226 -89.888249 
8.17e+008 0.00097401861 -89.888386 
8.18e+008 0.00097282788 -89.888522 
8.19e+008 0.00097164006 -89.888658 
8.2e+008 0.00097045514 -89.888794 
8.21e+008 0.00096927311 -89.888929 
8.22e+008 0.00096809395 -89.889065 
8.23e+008 0.00096691765 -89.889199 
8.24e+008 0.00096574421 -89.889334 
8.25e+008 0.00096457362 -89.889468 
8.26e+008 0.00096340586 -89.889602 
8.27e+008 0.00096224092 -89.889735 
8.28e+008 0.0009610788 -89.889868 
8.29e+008 0.00095991948 -89.890001 
8.3e+008 0.00095876295 -89.890134 
8.31e+008 0.00095760921 -89.890266 
8.32e+008 0.00095645824 -89.890398 
8.33e+008 0.00095531004 -89.890529 
8.34e+008 0.00095416459 -89.890661 
8.35e+008 0.00095302188 -89.890792 
8.36e+008 0.00095188191 -89.890922 
8.37e+008 0.00095074466 -89.891053 
8.38e+008 0.00094961012 -89.891183 
8.39e+008 0.00094847829 -89.891312 
8.4e+008 0.00094734915 -89.891442 
8.41e+008 0.0009462227 -89.891571 