! AWR Design Environment (7670) Fri Mar 18 14:11:16 2016
! Document = 'RL'
! nPorts: 1, nXvals: 1000

# HZ Y DB R 50
!Freq DBY11 AngY11 
1000000 -7.46567 -32.141908 
2000000 -10.135344 -51.488113 
3000000 -12.603631 -62.053313 
4000000 -14.663661 -68.303016 
5000000 -16.382737 -72.343213 
6000000 -17.842529 -75.143949 
7000000 -19.105054 -77.19075 
8000000 -20.21457 -78.748274 
9000000 -21.20278 -79.97156 
10000000 -22.092835 -80.956939 
11000000 -22.902028 -81.767216 
12000000 -23.643553 -82.445004 
13000000 -24.327675 -83.02019 
14000000 -24.962525 -83.514339 
15000000 -25.554642 -83.943389 
16000000 -26.109358 -84.31937 
17000000 -26.631075 -84.651527 
18000000 -27.123468 -84.947081 
19000000 -27.589636 -85.211754 
20000000 -28.032212 -85.450135 
21000000 -28.453457 -85.665949 
22000000 -28.855321 -85.862251 
23000000 -29.2395 -86.041568 
24000000 -29.607479 -86.206011 
25000000 -29.960563 -86.357353 
26000000 -30.299907 -86.497099 
27000000 -30.626537 -86.626531 
28000000 -30.941367 -86.746748 
29000000 -31.245218 -86.858701 
30000000 -31.538828 -86.963211 
31000000 -31.822863 -87.060998 
32000000 -32.097927 -87.152688 
33000000 -32.364566 -87.238835 
34000000 -32.623281 -87.319925 
35000000 -32.874529 -87.396392 
36000000 -33.118727 -87.468619 
37000000 -33.35626 -87.536949 
38000000 -33.587481 -87.601689 
39000000 -33.812716 -87.663116 
40000000 -34.032267 -87.721475 
41000000 -34.246414 -87.776993 
42000000 -34.455415 -87.82987 
43000000 -34.659512 -87.880292 
44000000 -34.858929 -87.928424 
45000000 -35.053877 -87.974421 
46000000 -35.24455 -88.018419 
47000000 -35.431132 -88.060548 
48000000 -35.613794 -88.100924 
49000000 -35.792698 -88.139653 
50000000 -35.967995 -88.176834 
51000000 -36.139828 -88.212559 
52000000 -36.308331 -88.246911 
53000000 -36.473629 -88.279968 
54000000 -36.635843 -88.311802 
55000000 -36.795086 -88.34248 
56000000 -36.951464 -88.372062 
57000000 -37.105079 -88.400607 
58000000 -37.256026 -88.428169 
59000000 -37.404397 -88.454797 
60000000 -37.550277 -88.480539 
61000000 -37.693749 -88.505436 
62000000 -37.834892 -88.529532 
63000000 -37.973779 -88.552862 
64000000 -38.110482 -88.575464 
65000000 -38.245067 -88.597372 
66000000 -38.377601 -88.618615 
67000000 -38.508143 -88.639225 
68000000 -38.636754 -88.659229 
69000000 -38.763489 -88.678654 
70000000 -38.888403 -88.697523 
71000000 -39.011546 -88.715862 
72000000 -39.132969 -88.733691 
73000000 -39.252718 -88.751033 
74000000 -39.37084 -88.767905 
75000000 -39.487378 -88.784328 
76000000 -39.602373 -88.800319 
77000000 -39.715867 -88.815895 
78000000 -39.827897 -88.831072 
79000000 -39.938501 -88.845864 
80000000 -40.047716 -88.860287 
81000000 -40.155574 -88.874354 
82000000 -40.26211 -88.888078 
83000000 -40.367356 -88.901471 
84000000 -40.471342 -88.914546 
85000000 -40.574098 -88.927313 
86000000 -40.675653 -88.939783 
87000000 -40.776035 -88.951967 
88000000 -40.875271 -88.963874 
89000000 -40.973386 -88.975513 
90000000 -41.070405 -88.986894 
91000000 -41.166353 -88.998025 
92000000 -41.261253 -89.008913 
93000000 -41.355128 -89.019568 
94000000 -41.447999 -89.029996 
95000000 -41.539888 -89.040205 
96000000 -41.630815 -89.050201 
97000000 -41.720801 -89.059991 
98000000 -41.809864 -89.069581 
99000000 -41.898023 -89.078978 
1e+008 -41.985297 -89.088186 
1.01e+008 -42.071703 -89.097213 
1.02e+008 -42.157258 -89.106062 
1.03e+008 -42.241979 -89.11474 
1.04e+008 -42.325881 -89.123251 
1.05e+008 -42.408981 -89.131599 
1.06e+008 -42.491294 -89.13979 
1.07e+008 -42.572834 -89.147829 
1.08e+008 -42.653615 -89.155718 
1.09e+008 -42.733653 -89.163463 
1.1e+008 -42.81296 -89.171066 
1.11e+008 -42.89155 -89.178533 
1.12e+008 -42.969435 -89.185867 
1.13e+008 -43.046628 -89.19307 
1.14e+008 -43.123141 -89.200148 
1.15e+008 -43.198986 -89.207102 
1.16e+008 -43.274175 -89.213937 
1.17e+008 -43.348718 -89.220654 
1.18e+008 -43.422627 -89.227258 
1.19e+008 -43.495913 -89.233751 
1.2e+008 -43.568586 -89.240136 
1.21e+008 -43.640656 -89.246415 
1.22e+008 -43.712133 -89.252591 
1.23e+008 -43.783027 -89.258667 
1.24e+008 -43.853346 -89.264645 
1.25e+008 -43.923102 -89.270527 
1.26e+008 -43.992301 -89.276316 
1.27e+008 -44.060954 -89.282013 
1.28e+008 -44.129068 -89.287622 
1.29e+008 -44.196653 -89.293144 
1.3e+008 -44.263715 -89.298581 
1.31e+008 -44.330264 -89.303935 
1.32e+008 -44.396307 -89.309207 
1.33e+008 -44.461852 -89.314401 
1.34e+008 -44.526906 -89.319517 
1.35e+008 -44.591476 -89.324557 
1.36e+008 -44.65557 -89.329523 
1.37e+008 -44.719195 -89.334416 
1.38e+008 -44.782357 -89.339239 
1.39e+008 -44.845063 -89.343992 
1.4e+008 -44.907319 -89.348678 
1.41e+008 -44.969133 -89.353297 
1.42e+008 -45.03051 -89.35785 
1.43e+008 -45.091456 -89.362341 
1.44e+008 -45.151978 -89.366768 
1.45e+008 -45.212081 -89.371135 
1.46e+008 -45.27177 -89.375442 
1.47e+008 -45.331053 -89.37969 
1.48e+008 -45.389934 -89.383881 
1.49e+008 -45.448418 -89.388016 
1.5e+008 -45.506511 -89.392096 
1.51e+008 -45.564219 -89.396121 
1.52e+008 -45.621545 -89.400094 
1.53e+008 -45.678496 -89.404015 
1.54e+008 -45.735076 -89.407884 
1.55e+008 -45.791289 -89.411704 
1.56e+008 -45.847141 -89.415475 
1.57e+008 -45.902637 -89.419198 
1.58e+008 -45.95778 -89.422874 
1.59e+008 -46.012575 -89.426503 
1.6e+008 -46.067027 -89.430087 
1.61e+008 -46.121139 -89.433627 
1.62e+008 -46.174917 -89.437123 
1.63e+008 -46.228363 -89.440576 
1.64e+008 -46.281483 -89.443987 
1.65e+008 -46.33428 -89.447356 
1.66e+008 -46.386758 -89.450685 
1.67e+008 -46.438921 -89.453974 
1.68e+008 -46.490773 -89.457224 
1.69e+008 -46.542317 -89.460436 
1.7e+008 -46.593556 -89.463609 
1.71e+008 -46.644496 -89.466746 
1.72e+008 -46.695138 -89.469846 
1.73e+008 -46.745487 -89.47291 
1.74e+008 -46.795546 -89.47594 
1.75e+008 -46.845317 -89.478934 
1.76e+008 -46.894806 -89.481894 
1.77e+008 -46.944014 -89.484821 
1.78e+008 -46.992945 -89.487716 
1.79e+008 -47.041601 -89.490577 
1.8e+008 -47.089987 -89.493407 
1.81e+008 -47.138105 -89.496206 
1.82e+008 -47.185957 -89.498974 
1.83e+008 -47.233548 -89.501712 
1.84e+008 -47.280879 -89.50442 
1.85e+008 -47.327953 -89.507098 
1.86e+008 -47.374774 -89.509748 
1.87e+008 -47.421344 -89.51237 
1.88e+008 -47.467666 -89.514963 
1.89e+008 -47.513741 -89.51753 
1.9e+008 -47.559574 -89.520069 
1.91e+008 -47.605166 -89.522581 
1.92e+008 -47.65052 -89.525068 
1.93e+008 -47.695639 -89.527529 
1.94e+008 -47.740524 -89.529964 
1.95e+008 -47.785179 -89.532374 
1.96e+008 -47.829605 -89.53476 
1.97e+008 -47.873805 -89.537121 
1.98e+008 -47.917782 -89.539459 
1.99e+008 -47.961537 -89.541773 
2e+008 -48.005072 -89.544064 
2.01e+008 -48.048391 -89.546333 
2.02e+008 -48.091494 -89.548578 
2.03e+008 -48.134385 -89.550802 
2.04e+008 -48.177065 -89.553004 
2.05e+008 -48.219536 -89.555184 
2.06e+008 -48.261801 -89.557343 
2.07e+008 -48.303861 -89.559482 
2.08e+008 -48.345718 -89.5616 
2.09e+008 -48.387375 -89.563697 
2.1e+008 -48.428833 -89.565775 
2.11e+008 -48.470093 -89.567833 
2.12e+008 -48.511159 -89.569871 
2.13e+008 -48.552032 -89.57189 
2.14e+008 -48.592713 -89.573891 
2.15e+008 -48.633204 -89.575873 
2.16e+008 -48.673508 -89.577836 
2.17e+008 -48.713626 -89.579781 
2.18e+008 -48.753559 -89.581709 
2.19e+008 -48.793309 -89.583619 
2.2e+008 -48.832878 -89.585511 
2.21e+008 -48.872268 -89.587387 
2.22e+008 -48.91148 -89.589245 
2.23e+008 -48.950516 -89.591087 
2.24e+008 -48.989377 -89.592913 
2.25e+008 -49.028065 -89.594722 
2.26e+008 -49.066581 -89.596515 
2.27e+008 -49.104928 -89.598293 
2.28e+008 -49.143106 -89.600054 
2.29e+008 -49.181117 -89.601801 
2.3e+008 -49.218962 -89.603532 
2.31e+008 -49.256643 -89.605248 
2.32e+008 -49.294161 -89.60695 
2.33e+008 -49.331518 -89.608637 
2.34e+008 -49.368715 -89.610309 
2.35e+008 -49.405754 -89.611967 
2.36e+008 -49.442635 -89.613612 
2.37e+008 -49.47936 -89.615242 
2.38e+008 -49.515931 -89.616858 
2.39e+008 -49.552348 -89.618461 
2.4e+008 -49.588613 -89.620051 
2.41e+008 -49.624728 -89.621628 
2.42e+008 -49.660692 -89.623191 
2.43e+008 -49.696509 -89.624742 
2.44e+008 -49.732179 -89.62628 
2.45e+008 -49.767702 -89.627805 
2.46e+008 -49.803081 -89.629318 
2.47e+008 -49.838317 -89.630819 
2.48e+008 -49.87341 -89.632307 
2.49e+008 -49.908362 -89.633784 
2.5e+008 -49.943173 -89.635249 
2.51e+008 -49.977846 -89.636702 
2.52e+008 -50.012381 -89.638143 
2.53e+008 -50.04678 -89.639574 
2.54e+008 -50.081042 -89.640993 
2.55e+008 -50.11517 -89.6424 
2.56e+008 -50.149164 -89.643797 
2.57e+008 -50.183026 -89.645183 
2.58e+008 -50.216757 -89.646558 
2.59e+008 -50.250357 -89.647923 
2.6e+008 -50.283827 -89.649277 
2.61e+008 -50.317169 -89.650621 
2.62e+008 -50.350383 -89.651954 
2.63e+008 -50.383471 -89.653278 
2.64e+008 -50.416434 -89.654591 
2.65e+008 -50.449271 -89.655894 
2.66e+008 -50.481985 -89.657188 
2.67e+008 -50.514577 -89.658472 
2.68e+008 -50.547046 -89.659746 
2.69e+008 -50.579395 -89.661011 
2.7e+008 -50.611623 -89.662267 
2.71e+008 -50.643733 -89.663513 
2.72e+008 -50.675724 -89.66475 
2.73e+008 -50.707598 -89.665978 
2.74e+008 -50.739355 -89.667197 
2.75e+008 -50.770997 -89.668407 
2.76e+008 -50.802523 -89.669608 
2.77e+008 -50.833936 -89.670801 
2.78e+008 -50.865236 -89.671985 
2.79e+008 -50.896423 -89.673161 
2.8e+008 -50.927498 -89.674328 
2.81e+008 -50.958463 -89.675487 
2.82e+008 -50.989318 -89.676638 
2.83e+008 -51.020063 -89.677781 
2.84e+008 -51.0507 -89.678915 
2.85e+008 -51.08123 -89.680042 
2.86e+008 -51.111652 -89.68116 
2.87e+008 -51.141969 -89.682271 
2.88e+008 -51.17218 -89.683375 
2.89e+008 -51.202286 -89.68447 
2.9e+008 -51.232288 -89.685558 
2.91e+008 -51.262187 -89.686639 
2.92e+008 -51.291983 -89.687712 
2.93e+008 -51.321678 -89.688778 
2.94e+008 -51.351271 -89.689836 
2.95e+008 -51.380764 -89.690888 
2.96e+008 -51.410157 -89.691932 
2.97e+008 -51.439451 -89.692969 
2.98e+008 -51.468646 -89.693999 
2.99e+008 -51.497744 -89.695023 
3e+008 -51.526745 -89.696039 
3.01e+008 -51.555649 -89.697049 
3.02e+008 -51.584457 -89.698052 
3.03e+008 -51.61317 -89.699049 
3.04e+008 -51.641788 -89.700039 
3.05e+008 -51.670312 -89.701022 
3.06e+008 -51.698743 -89.701999 
3.07e+008 -51.727082 -89.70297 
3.08e+008 -51.755328 -89.703934 
3.09e+008 -51.783482 -89.704892 
3.1e+008 -51.811546 -89.705844 
3.11e+008 -51.839519 -89.70679 
3.12e+008 -51.867402 -89.70773 
3.13e+008 -51.895196 -89.708664 
3.14e+008 -51.922902 -89.709591 
3.15e+008 -51.950519 -89.710513 
3.16e+008 -51.978049 -89.711429 
3.17e+008 -52.005492 -89.71234 
3.18e+008 -52.032848 -89.713244 
3.19e+008 -52.060119 -89.714143 
3.2e+008 -52.087304 -89.715037 
3.21e+008 -52.114405 -89.715924 
3.22e+008 -52.141421 -89.716806 
3.23e+008 -52.168353 -89.717683 
3.24e+008 -52.195202 -89.718555 
3.25e+008 -52.221969 -89.719421 
3.26e+008 -52.248653 -89.720281 
3.27e+008 -52.275255 -89.721137 
3.28e+008 -52.301776 -89.721987 
3.29e+008 -52.328217 -89.722832 
3.3e+008 -52.354577 -89.723672 
3.31e+008 -52.380858 -89.724506 
3.32e+008 -52.407059 -89.725336 
3.33e+008 -52.433181 -89.726161 
3.34e+008 -52.459225 -89.726981 
3.35e+008 -52.485191 -89.727796 
3.36e+008 -52.51108 -89.728606 
3.37e+008 -52.536892 -89.729411 
3.38e+008 -52.562628 -89.730212 
3.39e+008 -52.588287 -89.731008 
3.4e+008 -52.613871 -89.731799 
3.41e+008 -52.639379 -89.732585 
3.42e+008 -52.664813 -89.733367 
3.43e+008 -52.690173 -89.734145 
3.44e+008 -52.715459 -89.734917 
3.45e+008 -52.740672 -89.735686 
3.46e+008 -52.765811 -89.73645 
3.47e+008 -52.790878 -89.737209 
3.48e+008 -52.815873 -89.737964 
3.49e+008 -52.840796 -89.738715 
3.5e+008 -52.865648 -89.739462 
3.51e+008 -52.890429 -89.740204 
3.52e+008 -52.915139 -89.740942 
3.53e+008 -52.93978 -89.741676 
3.54e+008 -52.96435 -89.742406 
3.55e+008 -52.988852 -89.743131 
3.56e+008 -53.013284 -89.743853 
3.57e+008 -53.037648 -89.74457 
3.58e+008 -53.061944 -89.745284 
3.59e+008 -53.086172 -89.745993 
3.6e+008 -53.110332 -89.746699 
3.61e+008 -53.134426 -89.7474 
3.62e+008 -53.158453 -89.748098 
3.63e+008 -53.182413 -89.748792 
3.64e+008 -53.206308 -89.749482 
3.65e+008 -53.230137 -89.750169 
3.66e+008 -53.253901 -89.750851 
3.67e+008 -53.2776 -89.75153 
3.68e+008 -53.301235 -89.752205 
3.69e+008 -53.324805 -89.752877 
3.7e+008 -53.348312 -89.753545 
3.71e+008 -53.371755 -89.754209 
3.72e+008 -53.395136 -89.75487 
3.73e+008 -53.418453 -89.755527 
3.74e+008 -53.441708 -89.75618 
3.75e+008 -53.464901 -89.756831 
3.76e+008 -53.488032 -89.757477 
3.77e+008 -53.511102 -89.758121 
3.78e+008 -53.53411 -89.758761 
3.79e+008 -53.557058 -89.759397 
3.8e+008 -53.579945 -89.76003 
3.81e+008 -53.602773 -89.76066 
3.82e+008 -53.62554 -89.761287 
3.83e+008 -53.648248 -89.76191 
3.84e+008 -53.670896 -89.76253 
3.85e+008 -53.693486 -89.763147 
3.86e+008 -53.716017 -89.76376 
3.87e+008 -53.73849 -89.764371 
3.88e+008 -53.760905 -89.764978 
3.89e+008 -53.783262 -89.765582 
3.9e+008 -53.805562 -89.766183 
3.91e+008 -53.827804 -89.766781 
3.92e+008 -53.84999 -89.767376 
3.93e+008 -53.87212 -89.767968 
3.94e+008 -53.894193 -89.768557 
3.95e+008 -53.91621 -89.769143 
3.96e+008 -53.938171 -89.769726 
3.97e+008 -53.960077 -89.770306 
3.98e+008 -53.981928 -89.770883 
3.99e+008 -54.003724 -89.771457 
4e+008 -54.025466 -89.772029 
4.01e+008 -54.047153 -89.772597 
4.02e+008 -54.068786 -89.773163 
4.03e+008 -54.090366 -89.773726 
4.04e+008 -54.111892 -89.774286 
4.05e+008 -54.133365 -89.774843 
4.06e+008 -54.154785 -89.775398 
4.07e+008 -54.176152 -89.775949 
4.08e+008 -54.197467 -89.776499 
4.09e+008 -54.218729 -89.777045 
4.1e+008 -54.23994 -89.777589 
4.11e+008 -54.261099 -89.77813 
4.12e+008 -54.282206 -89.778668 
4.13e+008 -54.303263 -89.779204 
4.14e+008 -54.324268 -89.779738 
4.15e+008 -54.345223 -89.780268 
4.16e+008 -54.366127 -89.780797 
4.17e+008 -54.386982 -89.781322 
4.18e+008 -54.407786 -89.781845 
4.19e+008 -54.42854 -89.782366 
4.2e+008 -54.449245 -89.782884 
4.21e+008 -54.469901 -89.7834 
4.22e+008 -54.490508 -89.783913 
4.23e+008 -54.511066 -89.784424 
4.24e+008 -54.531576 -89.784932 
4.25e+008 -54.552037 -89.785438 
4.26e+008 -54.57245 -89.785942 
4.27e+008 -54.592815 -89.786443 
4.28e+008 -54.613133 -89.786942 
4.29e+008 -54.633403 -89.787439 
4.3e+008 -54.653626 -89.787933 
4.31e+008 -54.673802 -89.788425 
4.32e+008 -54.693931 -89.788915 
4.33e+008 -54.714014 -89.789403 
4.34e+008 -54.73405 -89.789888 
4.35e+008 -54.754041 -89.790371 
4.36e+008 -54.773985 -89.790852 
4.37e+008 -54.793884 -89.79133 
4.38e+008 -54.813737 -89.791807 
4.39e+008 -54.833545 -89.792281 
4.4e+008 -54.853308 -89.792753 
4.41e+008 -54.873026 -89.793223 
4.42e+008 -54.892699 -89.793691 
4.43e+008 -54.912328 -89.794156 
4.44e+008 -54.931912 -89.79462 
4.45e+008 -54.951453 -89.795082 
4.46e+008 -54.97095 -89.795541 
4.47e+008 -54.990403 -89.795998 
4.48e+008 -55.009812 -89.796454 
4.49e+008 -55.029179 -89.796907 
4.5e+008 -55.048502 -89.797358 
4.51e+008 -55.067782 -89.797808 
4.52e+008 -55.08702 -89.798255 
4.53e+008 -55.106215 -89.7987 
4.54e+008 -55.125368 -89.799144 
4.55e+008 -55.144478 -89.799585 
4.56e+008 -55.163547 -89.800025 
4.57e+008 -55.182574 -89.800462 
4.58e+008 -55.201559 -89.800898 
4.59e+008 -55.220503 -89.801332 
4.6e+008 -55.239406 -89.801764 
4.61e+008 -55.258268 -89.802194 
4.62e+008 -55.277088 -89.802622 
4.63e+008 -55.295868 -89.803048 
4.64e+008 -55.314608 -89.803473 
4.65e+008 -55.333307 -89.803895 
4.66e+008 -55.351966 -89.804316 
4.67e+008 -55.370585 -89.804735 
4.68e+008 -55.389165 -89.805152 
4.69e+008 -55.407704 -89.805568 
4.7e+008 -55.426204 -89.805981 
4.71e+008 -55.444665 -89.806393 
4.72e+008 -55.463087 -89.806804 
4.73e+008 -55.481469 -89.807212 
4.74e+008 -55.499813 -89.807619 
4.75e+008 -55.518118 -89.808024 
4.76e+008 -55.536385 -89.808427 
4.77e+008 -55.554613 -89.808829 
4.78e+008 -55.572803 -89.809229 
4.79e+008 -55.590955 -89.809627 
4.8e+008 -55.60907 -89.810023 
4.81e+008 -55.627146 -89.810418 
4.82e+008 -55.645185 -89.810812 
4.83e+008 -55.663187 -89.811203 
4.84e+008 -55.681151 -89.811594 
4.85e+008 -55.699079 -89.811982 
4.86e+008 -55.716969 -89.812369 
4.87e+008 -55.734823 -89.812754 
4.88e+008 -55.75264 -89.813138 
4.89e+008 -55.77042 -89.81352 
4.9e+008 -55.788165 -89.813901 
4.91e+008 -55.805873 -89.81428 
4.92e+008 -55.823545 -89.814657 
4.93e+008 -55.841181 -89.815033 
4.94e+008 -55.858781 -89.815407 
4.95e+008 -55.876346 -89.81578 
4.96e+008 -55.893876 -89.816152 
4.97e+008 -55.91137 -89.816522 
4.98e+008 -55.928828 -89.81689 
4.99e+008 -55.946252 -89.817257 
5e+008 -55.963641 -89.817622 
5.01e+008 -55.980996 -89.817987 
5.02e+008 -55.998315 -89.818349 
5.03e+008 -56.0156 -89.81871 
5.04e+008 -56.032851 -89.81907 
5.05e+008 -56.050068 -89.819428 
5.06e+008 -56.067251 -89.819785 
5.07e+008 -56.084399 -89.820141 
5.08e+008 -56.101514 -89.820495 
5.09e+008 -56.118595 -89.820847 
5.1e+008 -56.135643 -89.821198 
5.11e+008 -56.152657 -89.821548 
5.12e+008 -56.169638 -89.821897 
5.13e+008 -56.186586 -89.822244 
5.14e+008 -56.203501 -89.82259 
5.15e+008 -56.220383 -89.822934 
5.16e+008 -56.237233 -89.823278 
5.17e+008 -56.254049 -89.823619 
5.18e+008 -56.270833 -89.82396 
5.19e+008 -56.287585 -89.824299 
5.2e+008 -56.304305 -89.824637 
5.21e+008 -56.320992 -89.824974 
5.22e+008 -56.337648 -89.825309 
5.23e+008 -56.354271 -89.825643 
5.24e+008 -56.370863 -89.825976 
5.25e+008 -56.387423 -89.826307 
5.26e+008 -56.403952 -89.826637 
5.27e+008 -56.420449 -89.826966 
5.28e+008 -56.436915 -89.827294 
5.29e+008 -56.45335 -89.82762 
5.3e+008 -56.469754 -89.827946 
5.31e+008 -56.486127 -89.82827 
5.32e+008 -56.502469 -89.828592 
5.33e+008 -56.51878 -89.828914 
5.34e+008 -56.535061 -89.829234 
5.35e+008 -56.551311 -89.829554 
5.36e+008 -56.567531 -89.829872 
5.37e+008 -56.583721 -89.830188 
5.38e+008 -56.599881 -89.830504 
5.39e+008 -56.61601 -89.830819 
5.4e+008 -56.63211 -89.831132 
5.41e+008 -56.64818 -89.831444 
5.42e+008 -56.66422 -89.831755 
5.43e+008 -56.680231 -89.832065 
5.44e+008 -56.696212 -89.832374 
5.45e+008 -56.712164 -89.832681 
5.46e+008 -56.728087 -89.832988 
5.47e+008 -56.743981 -89.833293 
5.48e+008 -56.759845 -89.833597 
5.49e+008 -56.775681 -89.8339 
5.5e+008 -56.791487 -89.834202 
5.51e+008 -56.807265 -89.834503 
5.52e+008 -56.823015 -89.834803 
5.53e+008 -56.838736 -89.835102 
5.54e+008 -56.854428 -89.835399 
5.55e+008 -56.870093 -89.835696 
5.56e+008 -56.885729 -89.835991 
5.57e+008 -56.901337 -89.836286 
5.58e+008 -56.916917 -89.836579 
5.59e+008 -56.932469 -89.836872 
5.6e+008 -56.947993 -89.837163 
5.61e+008 -56.963489 -89.837453 
5.62e+008 -56.978958 -89.837742 
5.63e+008 -56.9944 -89.838031 
5.64e+008 -57.009814 -89.838318 
5.65e+008 -57.025201 -89.838604 
5.66e+008 -57.04056 -89.838889 
5.67e+008 -57.055893 -89.839173 
5.68e+008 -57.071198 -89.839456 
5.69e+008 -57.086477 -89.839738 
5.7e+008 -57.101728 -89.84002 
5.71e+008 -57.116953 -89.8403 
5.72e+008 -57.132151 -89.840579 
5.73e+008 -57.147323 -89.840857 
5.74e+008 -57.162469 -89.841134 
5.75e+008 -57.177587 -89.841411 
5.76e+008 -57.19268 -89.841686 
5.77e+008 -57.207747 -89.84196 
5.78e+008 -57.222787 -89.842234 
5.79e+008 -57.237801 -89.842506 
5.8e+008 -57.25279 -89.842778 
5.81e+008 -57.267753 -89.843048 
5.82e+008 -57.282689 -89.843318 
5.83e+008 -57.297601 -89.843587 
5.84e+008 -57.312486 -89.843855 
5.85e+008 -57.327347 -89.844122 
5.86e+008 -57.342182 -89.844388 
5.87e+008 -57.356991 -89.844653 
5.88e+008 -57.371776 -89.844917 
5.89e+008 -57.386535 -89.84518 
5.9e+008 -57.401269 -89.845443 
5.91e+008 -57.415978 -89.845704 
5.92e+008 -57.430663 -89.845965 
5.93e+008 -57.445322 -89.846225 
5.94e+008 -57.459957 -89.846483 
5.95e+008 -57.474568 -89.846741 
5.96e+008 -57.489153 -89.846999 
5.97e+008 -57.503715 -89.847255 
5.98e+008 -57.518252 -89.84751 
5.99e+008 -57.532764 -89.847765 
6e+008 -57.547253 -89.848019 
6.01e+008 -57.561717 -89.848271 
6.02e+008 -57.576157 -89.848524 
6.03e+008 -57.590574 -89.848775 
6.04e+008 -57.604966 -89.849025 
6.05e+008 -57.619335 -89.849275 
6.06e+008 -57.63368 -89.849523 
6.07e+008 -57.648001 -89.849771 
6.08e+008 -57.662299 -89.850018 
6.09e+008 -57.676573 -89.850265 
6.1e+008 -57.690824 -89.85051 
6.11e+008 -57.705051 -89.850755 
6.12e+008 -57.719255 -89.850999 
6.13e+008 -57.733436 -89.851242 
6.14e+008 -57.747594 -89.851484 
6.15e+008 -57.761729 -89.851725 
6.16e+008 -57.775841 -89.851966 
6.17e+008 -57.789929 -89.852206 
6.18e+008 -57.803996 -89.852445 
6.19e+008 -57.818039 -89.852684 
6.2e+008 -57.83206 -89.852921 
6.21e+008 -57.846058 -89.853158 
6.22e+008 -57.860033 -89.853394 
6.23e+008 -57.873987 -89.853629 
6.24e+008 -57.887917 -89.853864 
6.25e+008 -57.901826 -89.854098 
6.26e+008 -57.915712 -89.854331 
6.27e+008 -57.929576 -89.854563 
6.28e+008 -57.943418 -89.854795 
6.29e+008 -57.957238 -89.855026 
6.3e+008 -57.971036 -89.855256 
6.31e+008 -57.984812 -89.855485 
6.32e+008 -57.998566 -89.855714 
6.33e+008 -58.012299 -89.855942 
6.34e+008 -58.02601 -89.856169 
6.35e+008 -58.039699 -89.856395 
6.36e+008 -58.053367 -89.856621 
6.37e+008 -58.067013 -89.856846 
6.38e+008 -58.080638 -89.857071 
6.39e+008 -58.094241 -89.857294 
6.4e+008 -58.107824 -89.857517 
6.41e+008 -58.121385 -89.85774 
6.42e+008 -58.134925 -89.857961 
6.43e+008 -58.148443 -89.858182 
6.44e+008 -58.161941 -89.858402 
6.45e+008 -58.175418 -89.858622 
6.46e+008 -58.188874 -89.858841 
6.47e+008 -58.202309 -89.859059 
6.48e+008 -58.215724 -89.859276 
6.49e+008 -58.229117 -89.859493 
6.5e+008 -58.24249 -89.859709 
6.51e+008 -58.255843 -89.859925 
6.52e+008 -58.269175 -89.86014 
6.53e+008 -58.282487 -89.860354 
6.54e+008 -58.295778 -89.860567 
6.55e+008 -58.309049 -89.86078 
6.56e+008 -58.3223 -89.860993 
6.57e+008 -58.33553 -89.861204 
6.58e+008 -58.348741 -89.861415 
6.59e+008 -58.361931 -89.861625 
6.6e+008 -58.375101 -89.861835 
6.61e+008 -58.388252 -89.862044 
6.62e+008 -58.401382 -89.862252 
6.63e+008 -58.414493 -89.86246 
6.64e+008 -58.427584 -89.862667 
6.65e+008 -58.440655 -89.862874 
6.66e+008 -58.453707 -89.86308 
6.67e+008 -58.466739 -89.863285 
6.68e+008 -58.479751 -89.86349 
6.69e+008 -58.492744 -89.863694 
6.7e+008 -58.505718 -89.863897 
6.71e+008 -58.518672 -89.8641 
6.72e+008 -58.531607 -89.864302 
6.73e+008 -58.544523 -89.864504 
6.74e+008 -58.557419 -89.864705 
6.75e+008 -58.570297 -89.864905 
6.76e+008 -58.583155 -89.865105 
6.77e+008 -58.595995 -89.865304 
6.78e+008 -58.608815 -89.865503 
6.79e+008 -58.621617 -89.865701 
6.8e+008 -58.634399 -89.865899 
6.81e+008 -58.647163 -89.866096 
6.82e+008 -58.659908 -89.866292 
6.83e+008 -58.672635 -89.866488 
6.84e+008 -58.685343 -89.866683 
6.85e+008 -58.698032 -89.866878 
6.86e+008 -58.710703 -89.867072 
6.87e+008 -58.723355 -89.867265 
6.88e+008 -58.735989 -89.867458 
6.89e+008 -58.748605 -89.86765 
6.9e+008 -58.761202 -89.867842 
6.91e+008 -58.773781 -89.868033 
6.92e+008 -58.786342 -89.868224 
6.93e+008 -58.798885 -89.868414 
6.94e+008 -58.81141 -89.868604 
6.95e+008 -58.823916 -89.868793 
6.96e+008 -58.836405 -89.868981 
6.97e+008 -58.848875 -89.869169 
6.98e+008 -58.861328 -89.869357 
6.99e+008 -58.873763 -89.869544 
7e+008 -58.886181 -89.86973 
7.01e+008 -58.89858 -89.869916 
7.02e+008 -58.910962 -89.870101 
7.03e+008 -58.923326 -89.870286 
7.04e+008 -58.935673 -89.87047 
7.05e+008 -58.948002 -89.870654 
7.06e+008 -58.960313 -89.870837 
7.07e+008 -58.972608 -89.87102 
7.08e+008 -58.984884 -89.871202 
7.09e+008 -58.997144 -89.871384 
7.1e+008 -59.009386 -89.871565 
7.11e+008 -59.021611 -89.871746 
7.12e+008 -59.033819 -89.871926 
7.13e+008 -59.04601 -89.872105 
7.14e+008 -59.058183 -89.872284 
7.15e+008 -59.07034 -89.872463 
7.16e+008 -59.082479 -89.872641 
7.17e+008 -59.094602 -89.872819 
7.18e+008 -59.106708 -89.872996 
7.19e+008 -59.118796 -89.873173 
7.2e+008 -59.130868 -89.873349 
7.21e+008 -59.142924 -89.873524 
7.22e+008 -59.154962 -89.8737 
7.23e+008 -59.166984 -89.873874 
7.24e+008 -59.17899 -89.874048 
7.25e+008 -59.190978 -89.874222 
7.26e+008 -59.202951 -89.874395 
7.27e+008 -59.214906 -89.874568 
7.28e+008 -59.226846 -89.87474 
7.29e+008 -59.238769 -89.874912 
7.3e+008 -59.250675 -89.875084 
7.31e+008 -59.262565 -89.875255 
7.32e+008 -59.274439 -89.875425 
7.33e+008 -59.286297 -89.875595 
7.34e+008 -59.298139 -89.875764 
7.35e+008 -59.309964 -89.875933 
7.36e+008 -59.321774 -89.876102 
7.37e+008 -59.333567 -89.87627 
7.38e+008 -59.345345 -89.876438 
7.39e+008 -59.357106 -89.876605 
7.4e+008 -59.368852 -89.876772 
7.41e+008 -59.380581 -89.876938 
7.42e+008 -59.392295 -89.877104 
7.43e+008 -59.403993 -89.877269 
7.44e+008 -59.415676 -89.877434 
7.45e+008 -59.427343 -89.877599 
7.46e+008 -59.438994 -89.877763 
7.47e+008 -59.450629 -89.877926 
7.48e+008 -59.462249 -89.87809 
7.49e+008 -59.473853 -89.878252 
7.5e+008 -59.485442 -89.878415 
7.51e+008 -59.497016 -89.878577 
7.52e+008 -59.508574 -89.878738 
7.53e+008 -59.520116 -89.878899 
7.54e+008 -59.531644 -89.87906 
7.55e+008 -59.543156 -89.87922 
7.56e+008 -59.554652 -89.87938 
7.57e+008 -59.566134 -89.879539 
7.58e+008 -59.577601 -89.879698 
7.59e+008 -59.589052 -89.879856 
7.6e+008 -59.600488 -89.880015 
7.61e+008 -59.611909 -89.880172 
7.62e+008 -59.623316 -89.880329 
7.63e+008 -59.634707 -89.880486 
7.64e+008 -59.646083 -89.880643 
7.65e+008 -59.657445 -89.880799 
7.66e+008 -59.668791 -89.880954 
7.67e+008 -59.680123 -89.88111 
7.68e+008 -59.69144 -89.881264 
7.69e+008 -59.702743 -89.881419 
7.7e+008 -59.71403 -89.881573 
7.71e+008 -59.725303 -89.881726 
7.72e+008 -59.736562 -89.88188 
7.73e+008 -59.747806 -89.882032 
7.74e+008 -59.759035 -89.882185 
7.75e+008 -59.77025 -89.882337 
7.76e+008 -59.78145 -89.882488 
7.77e+008 -59.792636 -89.88264 
7.78e+008 -59.803807 -89.882791 
7.79e+008 -59.814965 -89.882941 
7.8e+008 -59.826107 -89.883091 
7.81e+008 -59.837236 -89.883241 
7.82e+008 -59.84835 -89.88339 
7.83e+008 -59.85945 -89.883539 
7.84e+008 -59.870536 -89.883688 
7.85e+008 -59.881608 -89.883836 
7.86e+008 -59.892666 -89.883984 
7.87e+008 -59.90371 -89.884131 
7.88e+008 -59.914739 -89.884278 
7.89e+008 -59.925755 -89.884425 
7.9e+008 -59.936757 -89.884571 
7.91e+008 -59.947745 -89.884717 
7.92e+008 -59.958718 -89.884862 
7.93e+008 -59.969679 -89.885008 
7.94e+008 -59.980625 -89.885152 
7.95e+008 -59.991557 -89.885297 
7.96e+008 -60.002476 -89.885441 
7.97e+008 -60.013381 -89.885585 
7.98e+008 -60.024272 -89.885728 
7.99e+008 -60.03515 -89.885871 
8e+008 -60.046014 -89.886014 
8.01e+008 -60.056865 -89.886156 
8.02e+008 -60.067702 -89.886298 
8.03e+008 -60.078525 -89.88644 
8.04e+008 -60.089335 -89.886581 
8.05e+008 -60.100132 -89.886722 
8.06e+008 -60.110915 -89.886862 
8.07e+008 -60.121685 -89.887003 
8.08e+008 -60.132441 -89.887142 
8.09e+008 -60.143185 -89.887282 
8.1e+008 -60.153914 -89.887421 
8.11e+008 -60.164631 -89.88756 
8.12e+008 -60.175335 -89.887698 
8.13e+008 -60.186025 -89.887836 
8.14e+008 -60.196702 -89.887974 
8.15e+008 -60.207366 -89.888112 
8.16e+008 -60.218017 -89.888249 
8.17e+008 -60.228655 -89.888386 
8.18e+008 -60.23928 -89.888522 
8.19e+008 -60.249892 -89.888658 
8.2e+008 -60.260491 -89.888794 
8.21e+008 -60.271077 -89.888929 
8.22e+008 -60.28165 -89.889065 
8.23e+008 -60.29221 -89.889199 
8.24e+008 -60.302758 -89.889334 
8.25e+008 -60.313292 -89.889468 
8.26e+008 -60.323814 -89.889602 
8.27e+008 -60.334324 -89.889735 
8.28e+008 -60.34482 -89.889868 
8.29e+008 -60.355304 -89.890001 
8.3e+008 -60.365775 -89.890134 
8.31e+008 -60.376234 -89.890266 
8.32e+008 -60.38668 -89.890398 
8.33e+008 -60.397113 -89.890529 
8.34e+008 -60.407534 -89.890661 
8.35e+008 -60.417943 -89.890792 
8.36e+008 -60.428339 -89.890922 
8.37e+008 -60.438722 -89.891053 
8.38e+008 -60.449093 -89.891183 
8.39e+008 -60.459452 -89.891312 
8.4e+008 -60.469799 -89.891442 
8.41e+008 -60.480133 -89.891571 
8.42e+008 -60.490455 -89.8917 
8.43e+008 -60.500764 -89.891828 
8.44e+008 -60.511062 -89.891956 
8.45e+008 -60.521347 -89.892084 
8.46e+008 -60.53162 -89.892212 
8.47e+008 -60.541881 -89.892339 
8.48e+008 -60.55213 -89.892466 
8.49e+008 -60.562366 -89.892593 
8.5e+008 -60.572591 -89.892719 
8.51e+008 -60.582804 -89.892845 
8.52e+008 -60.593004 -89.892971 
8.53e+008 -60.603193 -89.893096 
8.54e+008 -60.61337 -89.893221 
8.55e+008 -60.623535 -89.893346 
8.56e+008 -60.633688 -89.893471 
8.57e+008 -60.643829 -89.893595 
8.58e+008 -60.653958 -89.893719 
8.59e+008 -60.664075 -89.893843 
8.6e+008 -60.674181 -89.893966 
8.61e+008 -60.684275 -89.894089 
8.62e+008 -60.694357 -89.894212 
8.63e+008 -60.704428 -89.894335 
8.64e+008 -60.714487 -89.894457 
8.65e+008 -60.724534 -89.894579 
8.66e+008 -60.73457 -89.894701 
8.67e+008 -60.744594 -89.894822 
8.68e+008 -60.754606 -89.894944 
8.69e+008 -60.764607 -89.895064 
8.7e+008 -60.774597 -89.895185 
8.71e+008 -60.784575 -89.895305 
8.72e+008 -60.794541 -89.895425 
8.73e+008 -60.804497 -89.895545 
8.74e+008 -60.81444 -89.895665 
8.75e+008 -60.824373 -89.895784 
8.76e+008 -60.834294 -89.895903 
8.77e+008 -60.844203 -89.896022 
8.78e+008 -60.854102 -89.89614 
8.79e+008 -60.863989 -89.896258 
8.8e+008 -60.873865 -89.896376 
8.81e+008 -60.88373 -89.896494 
8.82e+008 -60.893583 -89.896611 
8.83e+008 -60.903425 -89.896728 
8.84e+008 -60.913257 -89.896845 
8.85e+008 -60.923077 -89.896962 
8.86e+008 -60.932886 -89.897078 
8.87e+008 -60.942684 -89.897194 
8.88e+008 -60.952471 -89.89731 
8.89e+008 -60.962246 -89.897425 