<<<<<<< HEAD
! AWR Design Environment (7670) Wed Mar 16 14:40:57 2016
=======
! AWR Design Environment (7670) Fri Mar 18 13:37:58 2016
>>>>>>> 53715455d6c8bd48a7d8d2eebc97b316efc69a6a
! Document = 'RL'
! nPorts: 1, nXvals: 1000

# HZ S MA R 50
!Freq MagS11 AngS11 
1000000 0.49375564 28.760325 
2000000 0.69115053 28.348154 
3000000 0.80953944 23.655836 
4000000 0.8755191 19.578338 
5000000 0.91377137 16.479773 
6000000 0.93728853 14.141988 
7000000 0.9525668 12.346092 
8000000 0.96297223 10.93529 
9000000 0.970344 9.8031327 
10000000 0.97574127 8.8771764 
11000000 0.9798036 8.1072269 
12000000 0.98293359 7.4577363 
13000000 0.98539396 6.902973 
14000000 0.98736169 6.4239236 
15000000 0.98895926 6.0062724 
16000000 0.99027354 5.6390552 
17000000 0.99136744 5.3137444 
18000000 0.99228741 5.0236147 
19000000 0.99306833 4.7632954 
20000000 0.99373677 4.5284479 
21000000 0.99431328 4.315531 
22000000 0.99481393 4.1216273 
23000000 0.99525143 3.9443118 
24000000 0.99563594 3.7815534 
25000000 0.99597568 3.6316377 
26000000 0.99627731 3.4931086 
27000000 0.99654633 3.3647209 
28000000 0.99678725 3.2454044 
29000000 0.99700386 3.1342334 
30000000 0.99719931 3.0304039 
31000000 0.99737627 2.9332139 
32000000 0.997537 2.842048 
33000000 0.99768341 2.7563644 
34000000 0.99781717 2.6756841 
35000000 0.99793967 2.5995823 
36000000 0.99805216 2.5276808 
37000000 0.99815569 2.4596419 
38000000 0.99825119 2.3951631 
39000000 0.99833947 2.3339725 
40000000 0.99842123 2.2758254 
41000000 0.9984971 2.2205004 
42000000 0.99856764 2.1677975 
43000000 0.99863333 2.1175346 
44000000 0.99869461 2.0695465 
45000000 0.99875185 2.0236824 
46000000 0.99880542 1.9798045 
47000000 0.99885561 1.9377865 
48000000 0.99890271 1.897513 
49000000 0.99894695 1.8588775 
50000000 0.99898858 1.8217823 
51000000 0.99902779 1.786137 
52000000 0.99906476 1.7518585 
53000000 0.99909967 1.7188697 
54000000 0.99913265 1.6870992 
55000000 0.99916386 1.6564807 
56000000 0.99919341 1.6269529 
57000000 0.99922143 1.5984584 
58000000 0.99924801 1.5709441 
59000000 0.99927325 1.5443602 
60000000 0.99929725 1.5186604 
61000000 0.99932007 1.4938013 
62000000 0.9993418 1.4697424 
63000000 0.99936251 1.4464456 
64000000 0.99938225 1.4238754 
65000000 0.99940109 1.4019983 
66000000 0.99941909 1.3807828 
67000000 0.99943628 1.3601995 
68000000 0.99945272 1.3402204 
69000000 0.99946846 1.3208195 
70000000 0.99948352 1.3019719 
71000000 0.99949796 1.2836544 
72000000 0.99951179 1.2658448 
73000000 0.99952507 1.2485225 
74000000 0.9995378 1.2316675 
75000000 0.99955004 1.2152614 
76000000 0.99956179 1.1992864 
77000000 0.99957309 1.1837258 
78000000 0.99958396 1.1685636 
79000000 0.99959442 1.1537847 
80000000 0.99960449 1.1393748 
81000000 0.99961419 1.1253203 
82000000 0.99962353 1.1116082 
83000000 0.99963254 1.098226 
84000000 0.99964124 1.0851621 
85000000 0.99964962 1.0724053 
86000000 0.99965772 1.0599447 
87000000 0.99966554 1.0477703 
88000000 0.99967309 1.0358724 
89000000 0.99968039 1.0242414 
90000000 0.99968745 1.0128687 
91000000 0.99969428 1.0017457 
92000000 0.99970089 0.99086427 
93000000 0.99970728 0.98021661 
94000000 0.99971347 0.96979529 
95000000 0.99971947 0.95959315 
96000000 0.99972528 0.94960337 
97000000 0.99973091 0.93981938 
98000000 0.99973637 0.9302349 
99000000 0.99974167 0.92084387 
1e+008 0.99974681 0.91164051 
1.01e+008 0.9997518 0.90261924 
1.02e+008 0.99975664 0.89377472 
1.03e+008 0.99976134 0.88510181 
1.04e+008 0.9997659 0.87659555 
1.05e+008 0.99977034 0.8682512 
1.06e+008 0.99977465 0.86006417 
1.07e+008 0.99977884 0.85203005 
1.08e+008 0.99978292 0.84414461 
1.09e+008 0.99978688 0.83640376 
1.1e+008 0.99979074 0.82880355 
1.11e+008 0.99979449 0.82134019 
1.12e+008 0.99979814 0.81401002 
1.13e+008 0.9998017 0.8068095 
1.14e+008 0.99980516 0.79973523 
1.15e+008 0.99980853 0.79278391 
1.16e+008 0.99981182 0.78595236 
1.17e+008 0.99981502 0.77923752 
1.18e+008 0.99981814 0.77263643 
1.19e+008 0.99982118 0.76614621 
1.2e+008 0.99982415 0.7597641 
1.21e+008 0.99982704 0.75348742 
1.22e+008 0.99982987 0.74731358 
1.23e+008 0.99983262 0.74124007 
1.24e+008 0.99983531 0.73526447 
1.25e+008 0.99983793 0.72938443 
1.26e+008 0.99984049 0.72359768 
1.27e+008 0.999843 0.717902 
1.28e+008 0.99984544 0.71229528 
1.29e+008 0.99984782 0.70677544 
1.3e+008 0.99985016 0.70134047 
1.31e+008 0.99985243 0.69598845 
1.32e+008 0.99985466 0.69071748 
1.33e+008 0.99985684 0.68552573 
1.34e+008 0.99985897 0.68041143 
1.35e+008 0.99986105 0.67537287 
1.36e+008 0.99986308 0.67040837 
1.37e+008 0.99986507 0.66551632 
1.38e+008 0.99986702 0.66069513 
1.39e+008 0.99986893 0.65594328 
1.4e+008 0.99987079 0.65125929 
1.41e+008 0.99987262 0.64664171 
1.42e+008 0.99987441 0.64208914 
1.43e+008 0.99987616 0.63760021 
1.44e+008 0.99987787 0.63317361 
1.45e+008 0.99987955 0.62880804 
1.46e+008 0.99988119 0.62450225 
1.47e+008 0.9998828 0.62025501 
1.48e+008 0.99988438 0.61606516 
1.49e+008 0.99988593 0.61193152 
1.5e+008 0.99988744 0.60785297 
1.51e+008 0.99988893 0.60382843 
1.52e+008 0.99989039 0.59985682 
1.53e+008 0.99989181 0.59593711 
1.54e+008 0.99989321 0.59206828 
1.55e+008 0.99989459 0.58824936 
1.56e+008 0.99989593 0.58447939 
1.57e+008 0.99989725 0.58075742 
1.58e+008 0.99989855 0.57708255 
1.59e+008 0.99989982 0.57345389 
1.6e+008 0.99990107 0.56987057 
1.61e+008 0.9999023 0.56633176 
1.62e+008 0.9999035 0.56283662 
1.63e+008 0.99990468 0.55938435 
1.64e+008 0.99990584 0.55597416 
1.65e+008 0.99990697 0.5526053 
1.66e+008 0.99990809 0.54927702 
1.67e+008 0.99990919 0.54598859 
1.68e+008 0.99991027 0.54273929 
1.69e+008 0.99991133 0.53952843 
1.7e+008 0.99991237 0.53635534 
1.71e+008 0.99991339 0.53321935 
1.72e+008 0.99991439 0.53011981 
1.73e+008 0.99991538 0.5270561 
1.74e+008 0.99991635 0.52402759 
1.75e+008 0.9999173 0.52103369 
1.76e+008 0.99991824 0.51807379 
1.77e+008 0.99991916 0.51514734 
1.78e+008 0.99992006 0.51225375 
1.79e+008 0.99992096 0.50939249 
1.8e+008 0.99992183 0.50656302 
1.81e+008 0.99992269 0.5037648 
1.82e+008 0.99992354 0.50099732 
1.83e+008 0.99992437 0.49826008 
1.84e+008 0.99992519 0.49555258 
1.85e+008 0.999926 0.49287435 
1.86e+008 0.99992679 0.49022491 
1.87e+008 0.99992757 0.4876038 
1.88e+008 0.99992834 0.48501056 
1.89e+008 0.9999291 0.48244477 
1.9e+008 0.99992984 0.47990597 
1.91e+008 0.99993057 0.47739375 
1.92e+008 0.9999313 0.4749077 
1.93e+008 0.99993201 0.4724474 
1.94e+008 0.9999327 0.47001246 
1.95e+008 0.99993339 0.46760249 
1.96e+008 0.99993407 0.4652171 
1.97e+008 0.99993474 0.46285593 
1.98e+008 0.9999354 0.4605186 
1.99e+008 0.99993604 0.45820476 
2e+008 0.99993668 0.45591405 
2.01e+008 0.99993731 0.45364613 
2.02e+008 0.99993793 0.45140066 
2.03e+008 0.99993854 0.44917731 
2.04e+008 0.99993914 0.44697575 
2.05e+008 0.99993973 0.44479567 
2.06e+008 0.99994032 0.44263674 
2.07e+008 0.99994089 0.44049868 
2.08e+008 0.99994146 0.43838116 
2.09e+008 0.99994202 0.43628391 
2.1e+008 0.99994257 0.43420663 
2.11e+008 0.99994311 0.43214903 
2.12e+008 0.99994365 0.43011084 
2.13e+008 0.99994417 0.42809178 
2.14e+008 0.99994469 0.4260916 
2.15e+008 0.99994521 0.42411001 
2.16e+008 0.99994571 0.42214677 
2.17e+008 0.99994621 0.42020162 
2.18e+008 0.9999467 0.41827431 
2.19e+008 0.99994719 0.4163646 
2.2e+008 0.99994767 0.41447225 
2.21e+008 0.99994814 0.41259702 
2.22e+008 0.99994861 0.41073869 
2.23e+008 0.99994907 0.40889701 
2.24e+008 0.99994952 0.40707178 
2.25e+008 0.99994997 0.40526277 
2.26e+008 0.99995041 0.40346976 
2.27e+008 0.99995085 0.40169255 
2.28e+008 0.99995128 0.39993093 
2.29e+008 0.9999517 0.39818469 
2.3e+008 0.99995212 0.39645363 
2.31e+008 0.99995253 0.39473756 
2.32e+008 0.99995294 0.39303628 
2.33e+008 0.99995335 0.3913496 
2.34e+008 0.99995374 0.38967733 
2.35e+008 0.99995414 0.3880193 
2.36e+008 0.99995452 0.38637531 
2.37e+008 0.99995491 0.38474519 
2.38e+008 0.99995529 0.38312877 
2.39e+008 0.99995566 0.38152588 
2.4e+008 0.99995603 0.37993634 
2.41e+008 0.99995639 0.37835999 
2.42e+008 0.99995675 0.37679666 
2.43e+008 0.99995711 0.3752462 
2.44e+008 0.99995746 0.37370845 
2.45e+008 0.9999578 0.37218325 
2.46e+008 0.99995815 0.37067045 
2.47e+008 0.99995848 0.36916989 
2.48e+008 0.99995882 0.36768144 
2.49e+008 0.99995915 0.36620494 
2.5e+008 0.99995947 0.36474025 
2.51e+008 0.9999598 0.36328723 
2.52e+008 0.99996012 0.36184573 
2.53e+008 0.99996043 0.36041564 
2.54e+008 0.99996074 0.3589968 
2.55e+008 0.99996105 0.35758909 
2.56e+008 0.99996135 0.35619237 
2.57e+008 0.99996165 0.35480652 
2.58e+008 0.99996195 0.35343142 
2.59e+008 0.99996224 0.35206693 
2.6e+008 0.99996253 0.35071294 
2.61e+008 0.99996282 0.34936932 
2.62e+008 0.9999631 0.34803595 
2.63e+008 0.99996338 0.34671273 
2.64e+008 0.99996366 0.34539953 
2.65e+008 0.99996393 0.34409623 
2.66e+008 0.9999642 0.34280274 
2.67e+008 0.99996447 0.34151893 
2.68e+008 0.99996474 0.34024471 
2.69e+008 0.999965 0.33897995 
2.7e+008 0.99996526 0.33772457 
2.71e+008 0.99996551 0.33647844 
2.72e+008 0.99996576 0.33524148 
2.73e+008 0.99996601 0.33401358 
2.74e+008 0.99996626 0.33279464 
2.75e+008 0.99996651 0.33158457 
2.76e+008 0.99996675 0.33038326 
2.77e+008 0.99996699 0.32919063 
2.78e+008 0.99996723 0.32800657 
2.79e+008 0.99996746 0.32683101 
2.8e+008 0.99996769 0.32566383 
2.81e+008 0.99996792 0.32450497 
2.82e+008 0.99996815 0.32335432 
2.83e+008 0.99996837 0.32221181 
2.84e+008 0.9999686 0.32107733 
2.85e+008 0.99996882 0.31995082 
2.86e+008 0.99996903 0.31883219 
2.87e+008 0.99996925 0.31772135 
2.88e+008 0.99996946 0.31661822 
2.89e+008 0.99996967 0.31552273 
2.9e+008 0.99996988 0.31443479 
2.91e+008 0.99997009 0.31335433 
2.92e+008 0.99997029 0.31228127 
2.93e+008 0.9999705 0.31121553 
2.94e+008 0.9999707 0.31015704 
2.95e+008 0.99997089 0.30910573 
2.96e+008 0.99997109 0.30806152 
2.97e+008 0.99997129 0.30702434 
2.98e+008 0.99997148 0.30599412 
2.99e+008 0.99997167 0.30497079 
3e+008 0.99997186 0.30395428 
3.01e+008 0.99997204 0.30294453 
3.02e+008 0.99997223 0.30194146 
3.03e+008 0.99997241 0.30094502 
3.04e+008 0.99997259 0.29995512 
3.05e+008 0.99997277 0.29897172 
3.06e+008 0.99997295 0.29799475 
3.07e+008 0.99997313 0.29702414 
3.08e+008 0.9999733 0.29605983 
3.09e+008 0.99997347 0.29510176 
3.1e+008 0.99997364 0.29414988 
3.11e+008 0.99997381 0.29320411 
3.12e+008 0.99997398 0.29226441 
3.13e+008 0.99997415 0.29133071 
3.14e+008 0.99997431 0.29040295 
3.15e+008 0.99997447 0.28948109 
3.16e+008 0.99997463 0.28856506 
3.17e+008 0.99997479 0.28765481 
3.18e+008 0.99997495 0.28675029 
3.19e+008 0.99997511 0.28585143 
3.2e+008 0.99997526 0.28495819 
3.21e+008 0.99997542 0.28407052 
3.22e+008 0.99997557 0.28318836 
3.23e+008 0.99997572 0.28231166 
3.24e+008 0.99997587 0.28144038 
3.25e+008 0.99997602 0.28057445 
3.26e+008 0.99997617 0.27971384 
3.27e+008 0.99997631 0.27885849 
3.28e+008 0.99997646 0.27800835 
3.29e+008 0.9999766 0.27716338 
3.3e+008 0.99997674 0.27632354 
3.31e+008 0.99997688 0.27548877 
3.32e+008 0.99997702 0.27465902 
3.33e+008 0.99997716 0.27383426 
3.34e+008 0.99997729 0.27301444 
3.35e+008 0.99997743 0.27219951 
3.36e+008 0.99997756 0.27138943 
3.37e+008 0.9999777 0.27058416 
3.38e+008 0.99997783 0.26978365 
3.39e+008 0.99997796 0.26898787 
3.4e+008 0.99997809 0.26819677 
3.41e+008 0.99997822 0.2674103 
3.42e+008 0.99997834 0.26662844 
3.43e+008 0.99997847 0.26585113 
3.44e+008 0.9999786 0.26507835 
3.45e+008 0.99997872 0.26431004 
3.46e+008 0.99997884 0.26354617 
3.47e+008 0.99997896 0.26278671 
3.48e+008 0.99997908 0.26203161 
3.49e+008 0.9999792 0.26128083 
3.5e+008 0.99997932 0.26053435 
3.51e+008 0.99997944 0.25979212 
3.52e+008 0.99997956 0.25905411 
3.53e+008 0.99997967 0.25832028 
3.54e+008 0.99997979 0.25759059 
3.55e+008 0.9999799 0.25686501 
3.56e+008 0.99998001 0.25614351 
3.57e+008 0.99998013 0.25542606 
3.58e+008 0.99998024 0.25471261 
3.59e+008 0.99998035 0.25400313 
3.6e+008 0.99998046 0.2532976 
3.61e+008 0.99998056 0.25259597 
3.62e+008 0.99998067 0.25189822 
3.63e+008 0.99998078 0.25120431 
3.64e+008 0.99998088 0.25051422 
3.65e+008 0.99998099 0.24982791 
3.66e+008 0.99998109 0.24914535 
3.67e+008 0.99998119 0.24846651 
3.68e+008 0.9999813 0.24779135 
3.69e+008 0.9999814 0.24711986 
3.7e+008 0.9999815 0.24645199 
3.71e+008 0.9999816 0.24578773 
3.72e+008 0.9999817 0.24512704 
3.73e+008 0.99998179 0.24446988 
3.74e+008 0.99998189 0.24381625 
3.75e+008 0.99998199 0.2431661 
3.76e+008 0.99998208 0.2425194 
3.77e+008 0.99998218 0.24187614 
3.78e+008 0.99998227 0.24123628 
3.79e+008 0.99998237 0.2405998 
3.8e+008 0.99998246 0.23996666 
3.81e+008 0.99998255 0.23933685 
3.82e+008 0.99998264 0.23871034 
3.83e+008 0.99998273 0.2380871 
3.84e+008 0.99998282 0.2374671 
3.85e+008 0.99998291 0.23685033 
3.86e+008 0.999983 0.23623675 
3.87e+008 0.99998309 0.23562634 
3.88e+008 0.99998317 0.23501908 
3.89e+008 0.99998326 0.23441494 
3.9e+008 0.99998335 0.2338139 
3.91e+008 0.99998343 0.23321593 
3.92e+008 0.99998352 0.23262101 
3.93e+008 0.9999836 0.23202912 
3.94e+008 0.99998368 0.23144024 
3.95e+008 0.99998377 0.23085433 
3.96e+008 0.99998385 0.23027139 
3.97e+008 0.99998393 0.22969138 
3.98e+008 0.99998401 0.22911429 
3.99e+008 0.99998409 0.22854008 
4e+008 0.99998417 0.22796875 
4.01e+008 0.99998425 0.22740027 
4.02e+008 0.99998433 0.22683462 
4.03e+008 0.9999844 0.22627177 
4.04e+008 0.99998448 0.22571171 
4.05e+008 0.99998456 0.22515442 
4.06e+008 0.99998463 0.22459987 
4.07e+008 0.99998471 0.22404805 
4.08e+008 0.99998478 0.22349893 
4.09e+008 0.99998486 0.22295249 
4.1e+008 0.99998493 0.22240872 
4.11e+008 0.99998501 0.2218676 
4.12e+008 0.99998508 0.2213291 
4.13e+008 0.99998515 0.22079322 
4.14e+008 0.99998522 0.22025992 
4.15e+008 0.99998529 0.21972919 
4.16e+008 0.99998536 0.21920101 
4.17e+008 0.99998543 0.21867536 
4.18e+008 0.9999855 0.21815223 
4.19e+008 0.99998557 0.2176316 
4.2e+008 0.99998564 0.21711344 
4.21e+008 0.99998571 0.21659775 
4.22e+008 0.99998578 0.2160845 
4.23e+008 0.99998584 0.21557368 
4.24e+008 0.99998591 0.21506527 
4.25e+008 0.99998598 0.21455925 
4.26e+008 0.99998604 0.2140556 
4.27e+008 0.99998611 0.21355432 
4.28e+008 0.99998617 0.21305537 
4.29e+008 0.99998624 0.21255875 
4.3e+008 0.9999863 0.21206445 
4.31e+008 0.99998636 0.21157243 
4.32e+008 0.99998643 0.2110827 
4.33e+008 0.99998649 0.21059522 
4.34e+008 0.99998655 0.21010999 
4.35e+008 0.99998661 0.209627 
4.36e+008 0.99998668 0.20914621 
4.37e+008 0.99998674 0.20866763 
4.38e+008 0.9999868 0.20819124 
4.39e+008 0.99998686 0.20771701 
4.4e+008 0.99998692 0.20724494 
4.41e+008 0.99998698 0.20677501 
4.42e+008 0.99998703 0.2063072 
4.43e+008 0.99998709 0.20584151 
4.44e+008 0.99998715 0.20537792 
4.45e+008 0.99998721 0.20491641 
4.46e+008 0.99998727 0.20445697 
4.47e+008 0.99998732 0.20399958 
4.48e+008 0.99998738 0.20354424 
4.49e+008 0.99998744 0.20309092 
4.5e+008 0.99998749 0.20263962 
4.51e+008 0.99998755 0.20219032 
4.52e+008 0.9999876 0.20174301 
4.53e+008 0.99998766 0.20129767 
4.54e+008 0.99998771 0.2008543 
4.55e+008 0.99998776 0.20041287 
4.56e+008 0.99998782 0.19997338 
4.57e+008 0.99998787 0.19953581 
4.58e+008 0.99998792 0.19910016 
4.59e+008 0.99998798 0.1986664 
4.6e+008 0.99998803 0.19823453 
4.61e+008 0.99998808 0.19780453 
4.62e+008 0.99998813 0.19737639 
4.63e+008 0.99998818 0.1969501 
4.64e+008 0.99998823 0.19652565 
4.65e+008 0.99998829 0.19610303 
4.66e+008 0.99998834 0.19568222 
4.67e+008 0.99998839 0.19526321 
4.68e+008 0.99998844 0.19484599 
4.69e+008 0.99998848 0.19443055 
4.7e+008 0.99998853 0.19401688 
4.71e+008 0.99998858 0.19360496 
4.72e+008 0.99998863 0.19319479 
4.73e+008 0.99998868 0.19278636 
4.74e+008 0.99998873 0.19237964 
4.75e+008 0.99998877 0.19197464 
4.76e+008 0.99998882 0.19157135 
4.77e+008 0.99998887 0.19116974 
4.78e+008 0.99998891 0.19076981 
4.79e+008 0.99998896 0.19037155 
4.8e+008 0.99998901 0.18997496 
4.81e+008 0.99998905 0.18958001 
4.82e+008 0.9999891 0.1891867 
4.83e+008 0.99998914 0.18879502 
4.84e+008 0.99998919 0.18840495 
4.85e+008 0.99998923 0.1880165 
4.86e+008 0.99998928 0.18762964 
4.87e+008 0.99998932 0.18724437 
4.88e+008 0.99998936 0.18686069 
4.89e+008 0.99998941 0.18647857 
4.9e+008 0.99998945 0.18609801 
4.91e+008 0.99998949 0.185719 
4.92e+008 0.99998954 0.18534153 
4.93e+008 0.99998958 0.18496559 
4.94e+008 0.99998962 0.18459117 
4.95e+008 0.99998966 0.18421827 
4.96e+008 0.9999897 0.18384687 
4.97e+008 0.99998975 0.18347697 
4.98e+008 0.99998979 0.18310855 
4.99e+008 0.99998983 0.1827416 
5e+008 0.99998987 0.18237613 
5.01e+008 0.99998991 0.18201211 
5.02e+008 0.99998995 0.18164955 
5.03e+008 0.99998999 0.18128842 
5.04e+008 0.99999003 0.18092873 
5.05e+008 0.99999007 0.18057046 
5.06e+008 0.99999011 0.18021361 
5.07e+008 0.99999015 0.17985817 
5.08e+008 0.99999018 0.17950413 
5.09e+008 0.99999022 0.17915147 
5.1e+008 0.99999026 0.1788002 
5.11e+008 0.9999903 0.17845031 
5.12e+008 0.99999034 0.17810178 
5.13e+008 0.99999038 0.17775461 
5.14e+008 0.99999041 0.17740879 
5.15e+008 0.99999045 0.17706431 
5.16e+008 0.99999049 0.17672117 
5.17e+008 0.99999052 0.17637936 
5.18e+008 0.99999056 0.17603887 
5.19e+008 0.9999906 0.17569968 
5.2e+008 0.99999063 0.17536181 
5.21e+008 0.99999067 0.17502523 
5.22e+008 0.9999907 0.17468994 
5.23e+008 0.99999074 0.17435593 
5.24e+008 0.99999077 0.17402319 
5.25e+008 0.99999081 0.17369173 
5.26e+008 0.99999084 0.17336152 
5.27e+008 0.99999088 0.17303257 
5.28e+008 0.99999091 0.17270486 
5.29e+008 0.99999095 0.1723784 
5.3e+008 0.99999098 0.17205316 
5.31e+008 0.99999102 0.17172915 
5.32e+008 0.99999105 0.17140636 
5.33e+008 0.99999108 0.17108477 
5.34e+008 0.99999112 0.1707644 
5.35e+008 0.99999115 0.17044522 
5.36e+008 0.99999118 0.17012723 
5.37e+008 0.99999122 0.16981042 
5.38e+008 0.99999125 0.1694948 
5.39e+008 0.99999128 0.16918034 
5.4e+008 0.99999131 0.16886705 
5.41e+008 0.99999135 0.16855492 
5.42e+008 0.99999138 0.16824394 
5.43e+008 0.99999141 0.1679341 
5.44e+008 0.99999144 0.1676254 
5.45e+008 0.99999147 0.16731784 
5.46e+008 0.9999915 0.1670114 
5.47e+008 0.99999153 0.16670609 
5.48e+008 0.99999157 0.16640188 
5.49e+008 0.9999916 0.16609879 
5.5e+008 0.99999163 0.1657968 
5.51e+008 0.99999166 0.1654959 
5.52e+008 0.99999169 0.16519609 
5.53e+008 0.99999172 0.16489737 
5.54e+008 0.99999175 0.16459973 
5.55e+008 0.99999178 0.16430316 
5.56e+008 0.99999181 0.16400765 
5.57e+008 0.99999184 0.16371321 
5.58e+008 0.99999186 0.16341982 
5.59e+008 0.99999189 0.16312749 
5.6e+008 0.99999192 0.16283619 
5.61e+008 0.99999195 0.16254594 
5.62e+008 0.99999198 0.16225671 
5.63e+008 0.99999201 0.16196852 
5.64e+008 0.99999204 0.16168135 
5.65e+008 0.99999207 0.16139519 
5.66e+008 0.99999209 0.16111004 
5.67e+008 0.99999212 0.1608259 
5.68e+008 0.99999215 0.16054276 
5.69e+008 0.99999218 0.16026062 
5.7e+008 0.9999922 0.15997947 
5.71e+008 0.99999223 0.1596993 
5.72e+008 0.99999226 0.15942011 
5.73e+008 0.99999229 0.15914189 
5.74e+008 0.99999231 0.15886464 
5.75e+008 0.99999234 0.15858836 
5.76e+008 0.99999237 0.15831304 
5.77e+008 0.99999239 0.15803867 
5.78e+008 0.99999242 0.15776525 
5.79e+008 0.99999244 0.15749278 
5.8e+008 0.99999247 0.15722124 
5.81e+008 0.9999925 0.15695064 
5.82e+008 0.99999252 0.15668097 
5.83e+008 0.99999255 0.15641223 
5.84e+008 0.99999257 0.1561444 
5.85e+008 0.9999926 0.15587749 
5.86e+008 0.99999262 0.1556115 
5.87e+008 0.99999265 0.1553464 
5.88e+008 0.99999267 0.15508221 
5.89e+008 0.9999927 0.15481892 
5.9e+008 0.99999272 0.15455652 
5.91e+008 0.99999275 0.15429501 
5.92e+008 0.99999277 0.15403438 
5.93e+008 0.9999928 0.15377463 
5.94e+008 0.99999282 0.15351575 
5.95e+008 0.99999285 0.15325775 
5.96e+008 0.99999287 0.15300061 
5.97e+008 0.99999289 0.15274433 
5.98e+008 0.99999292 0.15248891 
5.99e+008 0.99999294 0.15223434 
6e+008 0.99999296 0.15198062 
6.01e+008 0.99999299 0.15172774 
6.02e+008 0.99999301 0.15147571 
6.03e+008 0.99999303 0.15122451 
6.04e+008 0.99999306 0.15097414 
6.05e+008 0.99999308 0.1507246 
6.06e+008 0.9999931 0.15047588 
6.07e+008 0.99999313 0.15022798 
6.08e+008 0.99999315 0.1499809 
6.09e+008 0.99999317 0.14973463 
6.1e+008 0.99999319 0.14948917 
6.11e+008 0.99999321 0.14924451 
6.12e+008 0.99999324 0.14900065 
6.13e+008 0.99999326 0.14875758 
6.14e+008 0.99999328 0.14851531 
6.15e+008 0.9999933 0.14827383 
6.16e+008 0.99999332 0.14803313 
6.17e+008 0.99999335 0.14779321 
6.18e+008 0.99999337 0.14755406 
6.19e+008 0.99999339 0.14731569 
6.2e+008 0.99999341 0.14707809 
6.21e+008 0.99999343 0.14684125 
6.22e+008 0.99999345 0.14660517 
6.23e+008 0.99999347 0.14636986 
6.24e+008 0.99999349 0.14613529 
6.25e+008 0.99999352 0.14590148 
6.26e+008 0.99999354 0.14566841 
6.27e+008 0.99999356 0.14543609 
6.28e+008 0.99999358 0.14520451 
6.29e+008 0.9999936 0.14497366 
6.3e+008 0.99999362 0.14474355 
6.31e+008 0.99999364 0.14451416 
6.32e+008 0.99999366 0.1442855 
6.33e+008 0.99999368 0.14405757 
6.34e+008 0.9999937 0.14383035 
6.35e+008 0.99999372 0.14360385 
6.36e+008 0.99999374 0.14337806 
6.37e+008 0.99999376 0.14315298 
6.38e+008 0.99999378 0.14292861 
6.39e+008 0.9999938 0.14270493 
6.4e+008 0.99999382 0.14248196 
6.41e+008 0.99999384 0.14225968 
6.42e+008 0.99999385 0.1420381 
6.43e+008 0.99999387 0.1418172 
6.44e+008 0.99999389 0.14159699 
6.45e+008 0.99999391 0.14137746 
6.46e+008 0.99999393 0.14115862 
6.47e+008 0.99999395 0.14094044 
6.48e+008 0.99999397 0.14072295 
6.49e+008 0.99999399 0.14050612 
6.5e+008 0.999994 0.14028996 
6.51e+008 0.99999402 0.14007446 
6.52e+008 0.99999404 0.13985963 
6.53e+008 0.99999406 0.13964545 
6.54e+008 0.99999408 0.13943193 
6.55e+008 0.9999941 0.13921906 
6.56e+008 0.99999411 0.13900684 
6.57e+008 0.99999413 0.13879526 
6.58e+008 0.99999415 0.13858433 
6.59e+008 0.99999417 0.13837404 
6.6e+008 0.99999419 0.13816438 
6.61e+008 0.9999942 0.13795536 
6.62e+008 0.99999422 0.13774697 
6.63e+008 0.99999424 0.13753921 
6.64e+008 0.99999425 0.13733207 
6.65e+008 0.99999427 0.13712556 
6.66e+008 0.99999429 0.13691967 
6.67e+008 0.99999431 0.1367144 
6.68e+008 0.99999432 0.13650974 
6.69e+008 0.99999434 0.13630569 
6.7e+008 0.99999436 0.13610225 
6.71e+008 0.99999437 0.13589942 
6.72e+008 0.99999439 0.13569719 
6.73e+008 0.99999441 0.13549556 
6.74e+008 0.99999442 0.13529453 
6.75e+008 0.99999444 0.1350941 
6.76e+008 0.99999446 0.13489426 
6.77e+008 0.99999447 0.13469501 
6.78e+008 0.99999449 0.13449634 
6.79e+008 0.99999451 0.13429827 
6.8e+008 0.99999452 0.13410077 
6.81e+008 0.99999454 0.13390386 
6.82e+008 0.99999455 0.13370752 
6.83e+008 0.99999457 0.13351176 
6.84e+008 0.99999459 0.13331656 
6.85e+008 0.9999946 0.13312194 
6.86e+008 0.99999462 0.13292789 
6.87e+008 0.99999463 0.1327344 
6.88e+008 0.99999465 0.13254148 
6.89e+008 0.99999466 0.13234911 
6.9e+008 0.99999468 0.1321573 
6.91e+008 0.9999947 0.13196605 
6.92e+008 0.99999471 0.13177535 
6.93e+008 0.99999473 0.1315852 
6.94e+008 0.99999474 0.1313956 
6.95e+008 0.99999476 0.13120654 
6.96e+008 0.99999477 0.13101803 
6.97e+008 0.99999479 0.13083006 
6.98e+008 0.9999948 0.13064262 
6.99e+008 0.99999482 0.13045573 
7e+008 0.99999483 0.13026936 
7.01e+008 0.99999485 0.13008353 
7.02e+008 0.99999486 0.12989823 
7.03e+008 0.99999487 0.12971346 
7.04e+008 0.99999489 0.12952921 
7.05e+008 0.9999949 0.12934548 
7.06e+008 0.99999492 0.12916227 
7.07e+008 0.99999493 0.12897958 
7.08e+008 0.99999495 0.12879741 
7.09e+008 0.99999496 0.12861575 
7.1e+008 0.99999498 0.1284346 
7.11e+008 0.99999499 0.12825397 
7.12e+008 0.999995 0.12807384 
7.13e+008 0.99999502 0.12789421 
7.14e+008 0.99999503 0.12771509 
7.15e+008 0.99999505 0.12753647 
7.16e+008 0.99999506 0.12735835 
7.17e+008 0.99999507 0.12718072 
7.18e+008 0.99999509 0.12700359 
7.19e+008 0.9999951 0.12682696 
7.2e+008 0.99999511 0.12665081 
7.21e+008 0.99999513 0.12647515 
7.22e+008 0.99999514 0.12629998 
7.23e+008 0.99999515 0.12612529 
7.24e+008 0.99999517 0.12595109 
7.25e+008 0.99999518 0.12577736 
7.26e+008 0.99999519 0.12560412 
7.27e+008 0.99999521 0.12543135 
7.28e+008 0.99999522 0.12525906 
7.29e+008 0.99999523 0.12508724 
7.3e+008 0.99999525 0.12491588 
7.31e+008 0.99999526 0.124745 
7.32e+008 0.99999527 0.12457459 
7.33e+008 0.99999529 0.12440464 
7.34e+008 0.9999953 0.12423515 
7.35e+008 0.99999531 0.12406613 
7.36e+008 0.99999532 0.12389756 
7.37e+008 0.99999534 0.12372945 
7.38e+008 0.99999535 0.1235618 
7.39e+008 0.99999536 0.1233946 
7.4e+008 0.99999537 0.12322785 
7.41e+008 0.99999539 0.12306155 
7.42e+008 0.9999954 0.1228957 
7.43e+008 0.99999541 0.1227303 
7.44e+008 0.99999542 0.12256534 
7.45e+008 0.99999544 0.12240082 
7.46e+008 0.99999545 0.12223675 
7.47e+008 0.99999546 0.12207311 
7.48e+008 0.99999547 0.12190992 
7.49e+008 0.99999548 0.12174716 
7.5e+008 0.9999955 0.12158483 
7.51e+008 0.99999551 0.12142293 
7.52e+008 0.99999552 0.12126147 
7.53e+008 0.99999553 0.12110043 
7.54e+008 0.99999554 0.12093982 
7.55e+008 0.99999556 0.12077964 
7.56e+008 0.99999557 0.12061988 
7.57e+008 0.99999558 0.12046054 
7.58e+008 0.99999559 0.12030162 
7.59e+008 0.9999956 0.12014312 
7.6e+008 0.99999561 0.11998504 
7.61e+008 0.99999563 0.11982738 
7.62e+008 0.99999564 0.11967012 
7.63e+008 0.99999565 0.11951328 
7.64e+008 0.99999566 0.11935685 
7.65e+008 0.99999567 0.11920083 
7.66e+008 0.99999568 0.11904522 
7.67e+008 0.99999569 0.11889001 
7.68e+008 0.99999571 0.11873521 
7.69e+008 0.99999572 0.11858081 
7.7e+008 0.99999573 0.11842681 
7.71e+008 0.99999574 0.11827321 
7.72e+008 0.99999575 0.11812001 
7.73e+008 0.99999576 0.1179672 
7.74e+008 0.99999577 0.11781479 
7.75e+008 0.99999578 0.11766277 
7.76e+008 0.99999579 0.11751115 
7.77e+008 0.9999958 0.11735991 
7.78e+008 0.99999582 0.11720906 
7.79e+008 0.99999583 0.1170586 
7.8e+008 0.99999584 0.11690853 
7.81e+008 0.99999585 0.11675884 
7.82e+008 0.99999586 0.11660953 
7.83e+008 0.99999587 0.11646061 
7.84e+008 0.99999588 0.11631206 
7.85e+008 0.99999589 0.1161639 
7.86e+008 0.9999959 0.11601611 
7.87e+008 0.99999591 0.11586869 
7.88e+008 0.99999592 0.11572165 
7.89e+008 0.99999593 0.11557499 
7.9e+008 0.99999594 0.11542869 
7.91e+008 0.99999595 0.11528276 
7.92e+008 0.99999596 0.1151372 
7.93e+008 0.99999597 0.11499201 
7.94e+008 0.99999598 0.11484719 
7.95e+008 0.99999599 0.11470273 
7.96e+008 0.999996 0.11455863 
7.97e+008 0.99999601 0.1144149 
7.98e+008 0.99999602 0.11427152 
7.99e+008 0.99999603 0.1141285 
8e+008 0.99999604 0.11398584 
8.01e+008 0.99999605 0.11384354 
8.02e+008 0.99999606 0.11370159 
8.03e+008 0.99999607 0.11356 
8.04e+008 0.99999608 0.11341875 
8.05e+008 0.99999609 0.11327786 
8.06e+008 0.9999961 0.11313732 
8.07e+008 0.99999611 0.11299713 
8.08e+008 0.99999612 0.11285728 
8.09e+008 0.99999613 0.11271778 
8.1e+008 0.99999614 0.11257862 
8.11e+008 0.99999615 0.11243981 
8.12e+008 0.99999616 0.11230134 
8.13e+008 0.99999617 0.11216321 
8.14e+008 0.99999618 0.11202541 
8.15e+008 0.99999619 0.11188796 
8.16e+008 0.9999962 0.11175084 
8.17e+008 0.99999621 0.11161406 
8.18e+008 0.99999621 0.11147762 
8.19e+008 0.99999622 0.1113415 
8.2e+008 0.99999623 0.11120572 
8.21e+008 0.99999624 0.11107027 
8.22e+008 0.99999625 0.11093515 
8.23e+008 0.99999626 0.11080036 
8.24e+008 0.99999627 0.11066589 
8.25e+008 0.99999628 0.11053175 
8.26e+008 0.99999629 0.11039794 
8.27e+008 0.9999963 0.11026445 
8.28e+008 0.99999631 0.11013128 
8.29e+008 0.99999631 0.10999843 
8.3e+008 0.99999632 0.10986591 
8.31e+008 0.99999633 0.1097337 
8.32e+008 0.99999634 0.10960181 
8.33e+008 0.99999635 0.10947023 
8.34e+008 0.99999636 0.10933898 
8.35e+008 0.99999637 0.10920803 
8.36e+008 0.99999638 0.1090774 
8.37e+008 0.99999638 0.10894708 
8.38e+008 0.99999639 0.10881708 
8.39e+008 0.9999964 0.10868738 
8.4e+008 0.99999641 0.10855799 
8.41e+008 0.99999642 0.10842891 
8.42e+008 0.99999643 0.10830013 
8.43e+008 0.99999644 0.10817166 
8.44e+008 0.99999644 0.1080435 
8.45e+008 0.99999645 0.10791564 
8.46e+008 0.99999646 0.10778808 
8.47e+008 0.99999647 0.10766082 
8.48e+008 0.99999648 0.10753386 
8.49e+008 0.99999649 0.10740721 
8.5e+008 0.99999649 0.10728085 
8.51e+008 0.9999965 0.10715478 
8.52e+008 0.99999651 0.10702901 
8.53e+008 0.99999652 0.10690354 
8.54e+008 0.99999653 0.10677836 
8.55e+008 0.99999653 0.10665348 
8.56e+008 0.99999654 0.10652888 
8.57e+008 0.99999655 0.10640458 
8.58e+008 0.99999656 0.10628057 
8.59e+008 0.99999657 0.10615684 
8.6e+008 0.99999658 0.1060334 
8.61e+008 0.99999658 0.10591025 
8.62e+008 0.99999659 0.10578739 
8.63e+008 0.9999966 0.10566481 
8.64e+008 0.99999661 0.10554251 
8.65e+008 0.99999661 0.1054205 
8.66e+008 0.99999662 0.10529877 
8.67e+008 0.99999663 0.10517732 
8.68e+008 0.99999664 0.10505614 
8.69e+008 0.99999665 0.10493525 
8.7e+008 0.99999665 0.10481464 
8.71e+008 0.99999666 0.1046943 
8.72e+008 0.99999667 0.10457424 
8.73e+008 0.99999668 0.10445445 
8.74e+008 0.99999668 0.10433494 
8.75e+008 0.99999669 0.1042157 
8.76e+008 0.9999967 0.10409673 
8.77e+008 0.99999671 0.10397804 
8.78e+008 0.99999671 0.10385961 
8.79e+008 0.99999672 0.10374146 
8.8e+008 0.99999673 0.10362357 
8.81e+008 0.99999674 0.10350595 
8.82e+008 0.99999674 0.1033886 
8.83e+008 0.99999675 0.10327151 
8.84e+008 0.99999676 0.10315469 
8.85e+008 0.99999677 0.10303813 
8.86e+008 0.99999677 0.10292184 
8.87e+008 0.99999678 0.1028058 
8.88e+008 0.99999679 0.10269003 