! AWR Design Environment (7670) Fri Mar 18 14:11:16 2016
! Document = 'RL'
! nPorts: 1, nXvals: 1000

# HZ Y RI R 50
!Freq ReY11 ImY11 
1000000 0.3584784 -0.22523862 
2000000 0.19386332 -0.24361583 
3000000 0.10981631 -0.20699887 
4000000 0.068338249 -0.17175275 
5000000 0.045999834 -0.14451274 
6000000 0.03286829 -0.12391053 
7000000 0.024576758 -0.10809423 
8000000 0.01903588 -0.095684771 
9000000 0.015161844 -0.08573821 
10000000 0.012352262 -0.077611548 
11000000 0.010252439 -0.070859768 
12000000 0.0086432035 -0.065168219 
13000000 0.0073835039 -0.0603095 
14000000 0.0063793657 -0.056115831 
15000000 0.0055662899 -0.052461046 
16000000 0.004898851 -0.049248622 
17000000 0.0043443269 -0.046403559 
18000000 0.0038786728 -0.043866756 
19000000 0.0034839057 -0.041591048 
20000000 0.0031463624 -0.039538356 
21000000 0.002855514 -0.03767762 
22000000 0.0026031425 -0.035983258 
23000000 0.0023827584 -0.034434019 
24000000 0.0021891832 -0.033012105 
25000000 0.002018244 -0.031702503 
26000000 0.0018665485 -0.030492462 
27000000 0.0017313159 -0.029371083 
28000000 0.00161025 -0.028328997 
29000000 0.0015014407 -0.027358107 
30000000 0.0014032891 -0.026451377 
31000000 0.0013144488 -0.025602668 
32000000 0.0012337789 -0.024806597 
33000000 0.0011603083 -0.024058425 
34000000 0.0010932056 -0.023353965 
35000000 0.0010317562 -0.022689504 
36000000 0.00097534277 -0.022061734 
37000000 0.00092343004 -0.021467704 
38000000 0.00087555194 -0.020904769 
39000000 0.00083130117 -0.020370555 
40000000 0.00079032056 -0.019862922 
41000000 0.00075229578 -0.019379937 
42000000 0.0007169494 -0.018919849 
43000000 0.00068403576 -0.018481071 
44000000 0.00065333671 -0.018062157 
45000000 0.00062465803 -0.01766179 
46000000 0.00059782632 -0.017278766 
47000000 0.00057268636 -0.016911984 
48000000 0.00054909892 -0.016560433 
49000000 0.00052693879 -0.016223185 
50000000 0.00050609314 -0.015899385 
51000000 0.00048646005 -0.015588245 
52000000 0.00046794729 -0.015289038 
53000000 0.00045047125 -0.01500109 
54000000 0.00043395596 -0.014723779 
55000000 0.00041833228 -0.014456526 
56000000 0.00040353719 -0.014198794 
57000000 0.00038951313 -0.013950084 
58000000 0.00037620745 -0.01370993 
59000000 0.00036357192 -0.0134779 
60000000 0.0003515623 -0.013253586 
61000000 0.00034013792 -0.013036613 
62000000 0.00032926139 -0.012826624 
63000000 0.00031889822 -0.012623288 
64000000 0.00030901661 -0.012426295 
65000000 0.0002995872 -0.012235352 
66000000 0.00029058281 -0.012050185 
67000000 0.00028197829 -0.011870536 
68000000 0.0002737503 -0.011696162 
69000000 0.00026587719 -0.011526834 
70000000 0.00025833886 -0.011362337 
71000000 0.00025111659 -0.011202466 
72000000 0.00024419295 -0.011047029 
73000000 0.00023755171 -0.010895844 
74000000 0.00023117772 -0.01074874 
75000000 0.00022505684 -0.010605554 
76000000 0.00021917583 -0.01046613 
77000000 0.00021352234 -0.010330323 
78000000 0.00020808477 -0.010197994 
79000000 0.00020285226 -0.010069011 
80000000 0.00019781464 -0.0099432485 
81000000 0.00019296236 -0.0098205877 
82000000 0.00018828642 -0.0097009152 
83000000 0.00018377838 -0.0095841232 
84000000 0.00017943031 -0.0094701088 
85000000 0.00017523473 -0.0093587744 
86000000 0.00017118458 -0.0092500264 
87000000 0.00016727323 -0.0091437758 
88000000 0.0001634944 -0.0090399376 
89000000 0.00015984218 -0.0089384305 
90000000 0.00015631097 -0.0088391771 
91000000 0.00015289548 -0.008742103 
92000000 0.00014959072 -0.0086471373 
93000000 0.00014639195 -0.0085542121 
94000000 0.00014329468 -0.0084632623 
95000000 0.00014029467 -0.0083742256 
96000000 0.00013738789 -0.0082870422 
97000000 0.00013457051 -0.008201655 
98000000 0.00013183891 -0.0081180091 
99000000 0.00012918963 -0.0080360516 
1e+008 0.00012661941 -0.0079557319 
1.01e+008 0.00012412512 -0.0078770016 
1.02e+008 0.00012170382 -0.0077998139 
1.03e+008 0.00011935267 -0.0077241239 
1.04e+008 0.000117069 -0.0076498884 
1.05e+008 0.00011485024 -0.007577066 
1.06e+008 0.00011269396 -0.0075056166 
1.07e+008 0.00011059784 -0.0074355018 
1.08e+008 0.00010855965 -0.0073666846 
1.09e+008 0.00010657729 -0.0072991293 
1.1e+008 0.00010464874 -0.0072328015 
1.11e+008 0.00010277205 -0.007167668 
1.12e+008 0.0001009454 -0.0071036969 
1.13e+008 9.9167014e-005 -0.0070408574 
1.14e+008 9.743521e-005 -0.0069791197 
1.15e+008 9.5748375e-005 -0.006918455 
1.16e+008 9.4104966e-005 -0.0068588357 
1.17e+008 9.2503505e-005 -0.006800235 
1.18e+008 9.0942577e-005 -0.0067426269 
1.19e+008 8.9420824e-005 -0.0066859865 
1.2e+008 8.7936948e-005 -0.0066302897 
1.21e+008 8.6489701e-005 -0.0065755129 
1.22e+008 8.5077888e-005 -0.0065216337 
1.23e+008 8.3700362e-005 -0.0064686301 
1.24e+008 8.2356021e-005 -0.006416481 
1.25e+008 8.1043809e-005 -0.0063651658 
1.26e+008 7.9762708e-005 -0.0063146648 
1.27e+008 7.8511744e-005 -0.0062649587 
1.28e+008 7.7289979e-005 -0.0062160289 
1.29e+008 7.6096511e-005 -0.0061678574 
1.3e+008 7.4930473e-005 -0.0061204266 
1.31e+008 7.3791031e-005 -0.0060737196 
1.32e+008 7.2677382e-005 -0.00602772 
1.33e+008 7.1588753e-005 -0.0059824119 
1.34e+008 7.0524402e-005 -0.0059377796 
1.35e+008 6.948361e-005 -0.0058938084 
1.36e+008 6.8465688e-005 -0.0058504834 
1.37e+008 6.7469971e-005 -0.0058077908 
1.38e+008 6.6495818e-005 -0.0057657166 
1.39e+008 6.554261e-005 -0.0057242475 
1.4e+008 6.4609752e-005 -0.0056833706 
1.41e+008 6.3696668e-005 -0.0056430733 
1.42e+008 6.2802803e-005 -0.0056033434 
1.43e+008 6.1927621e-005 -0.0055641689 
1.44e+008 6.1070607e-005 -0.0055255383 
1.45e+008 6.0231259e-005 -0.0054874404 
1.46e+008 5.9409097e-005 -0.0054498641 
1.47e+008 5.8603654e-005 -0.0054127989 
1.48e+008 5.7814479e-005 -0.0053762345 
1.49e+008 5.7041138e-005 -0.0053401606 
1.5e+008 5.628321e-005 -0.0053045676 
1.51e+008 5.5540288e-005 -0.0052694458 
1.52e+008 5.4811979e-005 -0.005234786 
1.53e+008 5.4097901e-005 -0.0052005792 
1.54e+008 5.3397687e-005 -0.0051668164 
1.55e+008 5.2710979e-005 -0.0051334892 
1.56e+008 5.2037434e-005 -0.0051005891 
1.57e+008 5.1376715e-005 -0.0050681079 
1.58e+008 5.0728501e-005 -0.0050360378 
1.59e+008 5.0092477e-005 -0.005004371 
1.6e+008 4.9468339e-005 -0.0049730999 
1.61e+008 4.8855794e-005 -0.0049422171 
1.62e+008 4.8254556e-005 -0.0049117155 
1.63e+008 4.7664348e-005 -0.0048815881 
1.64e+008 4.7084902e-005 -0.0048518279 
1.65e+008 4.6515958e-005 -0.0048224284 
1.66e+008 4.5957265e-005 -0.004793383 
1.67e+008 4.5408576e-005 -0.0047646853 
1.68e+008 4.4869655e-005 -0.0047363292 
1.69e+008 4.4340271e-005 -0.0047083086 
1.7e+008 4.3820201e-005 -0.0046806175 
1.71e+008 4.3309226e-005 -0.0046532502 
1.72e+008 4.2807138e-005 -0.0046262011 
1.73e+008 4.231373e-005 -0.0045994646 
1.74e+008 4.1828803e-005 -0.0045730353 
1.75e+008 4.1352165e-005 -0.004546908 
1.76e+008 4.0883627e-005 -0.0045210775 
1.77e+008 4.0423008e-005 -0.0044955389 
1.78e+008 3.9970128e-005 -0.0044702871 
1.79e+008 3.9524818e-005 -0.0044453174 
1.8e+008 3.9086907e-005 -0.004420625 
1.81e+008 3.8656234e-005 -0.0043962055 
1.82e+008 3.823264e-005 -0.0043720542 
1.83e+008 3.781597e-005 -0.0043481668 
1.84e+008 3.7406074e-005 -0.004324539 
1.85e+008 3.7002807e-005 -0.0043011666 
1.86e+008 3.6606026e-005 -0.0042780455 
1.87e+008 3.6215593e-005 -0.0042551715 
1.88e+008 3.5831373e-005 -0.0042325409 
1.89e+008 3.5453235e-005 -0.0042101497 
1.9e+008 3.5081051e-005 -0.0041879941 
1.91e+008 3.4714697e-005 -0.0041660705 
1.92e+008 3.4354052e-005 -0.0041443752 
1.93e+008 3.3998998e-005 -0.0041229047 
1.94e+008 3.364942e-005 -0.0041016555 
1.95e+008 3.3305205e-005 -0.0040806241 
1.96e+008 3.2966246e-005 -0.0040598074 
1.97e+008 3.2632434e-005 -0.0040392019 
1.98e+008 3.2303667e-005 -0.0040188046 
1.99e+008 3.1979844e-005 -0.0039986122 
2e+008 3.1660865e-005 -0.0039786216 
2.01e+008 3.1346635e-005 -0.00395883 
2.02e+008 3.103706e-005 -0.0039392342 
2.03e+008 3.0732048e-005 -0.0039198315 
2.04e+008 3.043151e-005 -0.003900619 
2.05e+008 3.0135359e-005 -0.0038815939 
2.06e+008 2.984351e-005 -0.0038627535 
2.07e+008 2.9555881e-005 -0.0038440951 
2.08e+008 2.9272389e-005 -0.003825616 
2.09e+008 2.8992957e-005 -0.0038073137 
2.1e+008 2.8717507e-005 -0.0037891858 
2.11e+008 2.8445964e-005 -0.0037712296 
2.12e+008 2.8178253e-005 -0.0037534428 
2.13e+008 2.7914305e-005 -0.003735823 
2.14e+008 2.7654047e-005 -0.0037183678 
2.15e+008 2.7397413e-005 -0.0037010749 
2.16e+008 2.7144334e-005 -0.0036839422 
2.17e+008 2.6894745e-005 -0.0036669673 
2.18e+008 2.6648584e-005 -0.0036501482 
2.19e+008 2.6405786e-005 -0.0036334826 
2.2e+008 2.6166292e-005 -0.0036169685 
2.21e+008 2.5930041e-005 -0.0036006038 
2.22e+008 2.5696975e-005 -0.0035843866 
2.23e+008 2.5467037e-005 -0.0035683147 
2.24e+008 2.5240172e-005 -0.0035523864 
2.25e+008 2.5016325e-005 -0.0035365996 
2.26e+008 2.4795442e-005 -0.0035209524 
2.27e+008 2.4577472e-005 -0.0035054432 
2.28e+008 2.4362363e-005 -0.0034900699 
2.29e+008 2.4150066e-005 -0.0034748309 
2.3e+008 2.3940532e-005 -0.0034597244 
2.31e+008 2.3733713e-005 -0.0034447487 
2.32e+008 2.3529563e-005 -0.003429902 
2.33e+008 2.3328035e-005 -0.0034151828 
2.34e+008 2.3129086e-005 -0.0034005893 
2.35e+008 2.293267e-005 -0.0033861201 
2.36e+008 2.2738746e-005 -0.0033717734 
2.37e+008 2.2547271e-005 -0.0033575478 
2.38e+008 2.2358205e-005 -0.0033434417 
2.39e+008 2.2171507e-005 -0.0033294537 
2.4e+008 2.1987137e-005 -0.0033155822 
2.41e+008 2.1805058e-005 -0.0033018258 
2.42e+008 2.1625231e-005 -0.003288183 
2.43e+008 2.1447619e-005 -0.0032746526 
2.44e+008 2.1272187e-005 -0.003261233 
2.45e+008 2.1098898e-005 -0.003247923 
2.46e+008 2.0927718e-005 -0.0032347212 
2.47e+008 2.0758613e-005 -0.0032216262 
2.48e+008 2.0591549e-005 -0.0032086369 
2.49e+008 2.0426494e-005 -0.0031957518 
2.5e+008 2.0263415e-005 -0.0031829699 
2.51e+008 2.0102282e-005 -0.0031702897 
2.52e+008 1.9943063e-005 -0.0031577102 
2.53e+008 1.9785728e-005 -0.0031452301 
2.54e+008 1.9630248e-005 -0.0031328483 
2.55e+008 1.9476593e-005 -0.0031205636 
2.56e+008 1.9324735e-005 -0.0031083748 
2.57e+008 1.9174646e-005 -0.0030962809 
2.58e+008 1.90263e-005 -0.0030842808 
2.59e+008 1.8879667e-005 -0.0030723732 
2.6e+008 1.8734724e-005 -0.0030605573 
2.61e+008 1.8591443e-005 -0.0030488319 
2.62e+008 1.84498e-005 -0.003037196 
2.63e+008 1.8309769e-005 -0.0030256486 
2.64e+008 1.8171326e-005 -0.0030141886 
2.65e+008 1.8034448e-005 -0.0030028151 
2.66e+008 1.789911e-005 -0.0029915272 
2.67e+008 1.7765291e-005 -0.0029803237 
2.68e+008 1.7632966e-005 -0.0029692039 
2.69e+008 1.7502114e-005 -0.0029581668 
2.7e+008 1.7372713e-005 -0.0029472114 
2.71e+008 1.7244742e-005 -0.0029363368 
2.72e+008 1.711818e-005 -0.0029255422 
2.73e+008 1.6993006e-005 -0.0029148266 
2.74e+008 1.68692e-005 -0.0029041893 
2.75e+008 1.6746742e-005 -0.0028936293 
2.76e+008 1.6625613e-005 -0.0028831459 
2.77e+008 1.6505793e-005 -0.0028727381 
2.78e+008 1.6387264e-005 -0.0028624052 
2.79e+008 1.6270007e-005 -0.0028521463 
2.8e+008 1.6154004e-005 -0.0028419607 
2.81e+008 1.6039237e-005 -0.0028318476 
2.82e+008 1.5925689e-005 -0.0028218063 
2.83e+008 1.5813342e-005 -0.0028118359 
2.84e+008 1.570218e-005 -0.0028019357 
2.85e+008 1.5592186e-005 -0.0027921049 
2.86e+008 1.5483344e-005 -0.0027823429 
2.87e+008 1.5375637e-005 -0.0027726489 
2.88e+008 1.526905e-005 -0.0027630223 
2.89e+008 1.5163568e-005 -0.0027534622 
2.9e+008 1.5059175e-005 -0.0027439681 
2.91e+008 1.4955857e-005 -0.0027345392 
2.92e+008 1.4853598e-005 -0.0027251749 
2.93e+008 1.4752384e-005 -0.0027158745 
2.94e+008 1.4652201e-005 -0.0027066374 
2.95e+008 1.4553036e-005 -0.0026974629 
2.96e+008 1.4454873e-005 -0.0026883504 
2.97e+008 1.4357701e-005 -0.0026792992 
2.98e+008 1.4261505e-005 -0.0026703088 
2.99e+008 1.4166272e-005 -0.0026613785 
3e+008 1.4071991e-005 -0.0026525077 
3.01e+008 1.3978647e-005 -0.0026436959 
3.02e+008 1.3886229e-005 -0.0026349424 
3.03e+008 1.3794724e-005 -0.0026262467 
3.04e+008 1.3704121e-005 -0.0026176082 
3.05e+008 1.3614408e-005 -0.0026090264 
3.06e+008 1.3525573e-005 -0.0026005006 
3.07e+008 1.3437604e-005 -0.0025920304 
3.08e+008 1.3350491e-005 -0.0025836152 
3.09e+008 1.3264222e-005 -0.0025752544 
3.1e+008 1.3178787e-005 -0.0025669476 
3.11e+008 1.3094174e-005 -0.0025586941 
3.12e+008 1.3010374e-005 -0.0025504936 
3.13e+008 1.2927375e-005 -0.0025423455 
3.14e+008 1.2845169e-005 -0.0025342493 
3.15e+008 1.2763744e-005 -0.0025262044 
3.16e+008 1.268309e-005 -0.0025182105 
3.17e+008 1.2603199e-005 -0.0025102671 
3.18e+008 1.252406e-005 -0.0025023735 
3.19e+008 1.2445665e-005 -0.0024945295 
3.2e+008 1.2368003e-005 -0.0024867345 
3.21e+008 1.2291065e-005 -0.002478988 
3.22e+008 1.2214844e-005 -0.0024712897 
3.23e+008 1.2139329e-005 -0.002463639 
3.24e+008 1.2064512e-005 -0.0024560355 
3.25e+008 1.1990385e-005 -0.0024484789 
3.26e+008 1.1916939e-005 -0.0024409686 
3.27e+008 1.1844166e-005 -0.0024335042 
3.28e+008 1.1772057e-005 -0.0024260853 
3.29e+008 1.1700605e-005 -0.0024187115 
3.3e+008 1.1629801e-005 -0.0024113824 
3.31e+008 1.1559638e-005 -0.0024040976 
3.32e+008 1.1490108e-005 -0.0023968567 
3.33e+008 1.1421204e-005 -0.0023896593 
3.34e+008 1.1352917e-005 -0.0023825049 
3.35e+008 1.1285241e-005 -0.0023753933 
3.36e+008 1.1218169e-005 -0.002368324 
3.37e+008 1.1151692e-005 -0.0023612966 
3.38e+008 1.1085805e-005 -0.0023543109 
3.39e+008 1.10205e-005 -0.0023473663 
3.4e+008 1.095577e-005 -0.0023404626 
3.41e+008 1.0891609e-005 -0.0023335994 
3.42e+008 1.082801e-005 -0.0023267763 
3.43e+008 1.0764966e-005 -0.002319993 
3.44e+008 1.0702472e-005 -0.0023132491 
3.45e+008 1.064052e-005 -0.0023065443 
3.46e+008 1.0579104e-005 -0.0022998783 
3.47e+008 1.0518218e-005 -0.0022932506 
3.48e+008 1.0457857e-005 -0.0022866611 
3.49e+008 1.0398014e-005 -0.0022801094 
3.5e+008 1.0338683e-005 -0.002273595 
3.51e+008 1.0279858e-005 -0.0022671178 
3.52e+008 1.0221534e-005 -0.0022606774 
3.53e+008 1.0163704e-005 -0.0022542735 
3.54e+008 1.0106365e-005 -0.0022479057 
3.55e+008 1.0049509e-005 -0.0022415739 
3.56e+008 9.9931313e-006 -0.0022352776 
3.57e+008 9.9372268e-006 -0.0022290165 
3.58e+008 9.8817902e-006 -0.0022227905 
3.59e+008 9.8268162e-006 -0.0022165991 
3.6e+008 9.7722997e-006 -0.0022104421 
3.61e+008 9.7182356e-006 -0.0022043192 
3.62e+008 9.6646189e-006 -0.0021982302 
3.63e+008 9.6114446e-006 -0.0021921747 
3.64e+008 9.5587081e-006 -0.0021861525 
3.65e+008 9.5064043e-006 -0.0021801632 
3.66e+008 9.4545287e-006 -0.0021742067 
3.67e+008 9.4030765e-006 -0.0021682827 
3.68e+008 9.3520433e-006 -0.0021623908 
3.69e+008 9.3014243e-006 -0.0021565309 
3.7e+008 9.2512152e-006 -0.0021507027 
3.71e+008 9.2014116e-006 -0.0021449059 
3.72e+008 9.152009e-006 -0.0021391402 
3.73e+008 9.1030032e-006 -0.0021334054 
3.74e+008 9.05439e-006 -0.0021277014 
3.75e+008 9.0061652e-006 -0.0021220277 
3.76e+008 8.9583246e-006 -0.0021163842 
3.77e+008 8.9108642e-006 -0.0021107706 
3.78e+008 8.86378e-006 -0.0021051868 
3.79e+008 8.817068e-006 -0.0020996324 
3.8e+008 8.7707242e-006 -0.0020941073 
3.81e+008 8.7247449e-006 -0.0020886111 
3.82e+008 8.6791262e-006 -0.0020831437 
3.83e+008 8.6338643e-006 -0.0020777049 
3.84e+008 8.5889556e-006 -0.0020722944 
3.85e+008 8.5443964e-006 -0.002066912 
3.86e+008 8.500183e-006 -0.0020615575 
3.87e+008 8.4563119e-006 -0.0020562306 
3.88e+008 8.4127796e-006 -0.0020509313 
3.89e+008 8.3695825e-006 -0.0020456591 
3.9e+008 8.3267173e-006 -0.002040414 
3.91e+008 8.2841806e-006 -0.0020351957 
3.92e+008 8.241969e-006 -0.0020300041 
3.93e+008 8.2000791e-006 -0.0020248388 
3.94e+008 8.1585079e-006 -0.0020196998 
3.95e+008 8.1172519e-006 -0.0020145868 
3.96e+008 8.0763081e-006 -0.0020094997 
3.97e+008 8.0356733e-006 -0.0020044381 
3.98e+008 7.9953445e-006 -0.001999402 
3.99e+008 7.9553184e-006 -0.0019943911 
4e+008 7.9155922e-006 -0.0019894053 
4.01e+008 7.8761627e-006 -0.0019844443 
4.02e+008 7.8370272e-006 -0.0019795081 
4.03e+008 7.7981826e-006 -0.0019745963 
4.04e+008 7.7596261e-006 -0.0019697088 
4.05e+008 7.7213549e-006 -0.0019648455 
4.06e+008 7.6833661e-006 -0.0019600061 
4.07e+008 7.645657e-006 -0.0019551905 
4.08e+008 7.6082247e-006 -0.0019503985 
4.09e+008 7.5710668e-006 -0.00194563 
4.1e+008 7.5341803e-006 -0.0019408847 
4.11e+008 7.4975628e-006 -0.0019361625 
4.12e+008 7.4612116e-006 -0.0019314632 
4.13e+008 7.4251241e-006 -0.0019267867 
4.14e+008 7.3892978e-006 -0.0019221327 
4.15e+008 7.3537301e-006 -0.0019175012 
4.16e+008 7.3184186e-006 -0.001912892 
4.17e+008 7.2833609e-006 -0.0019083049 
4.18e+008 7.2485545e-006 -0.0019037397 
4.19e+008 7.213997e-006 -0.0018991963 
4.2e+008 7.179686e-006 -0.0018946745 
4.21e+008 7.1456192e-006 -0.0018901742 
4.22e+008 7.1117943e-006 -0.0018856953 
4.23e+008 7.078209e-006 -0.0018812375 
4.24e+008 7.0448611e-006 -0.0018768007 
4.25e+008 7.0117483e-006 -0.0018723848 
4.26e+008 6.9788684e-006 -0.0018679897 
4.27e+008 6.9462192e-006 -0.0018636151 
4.28e+008 6.9137986e-006 -0.001859261 
4.29e+008 6.8816044e-006 -0.0018549272 
4.3e+008 6.8496346e-006 -0.0018506135 
4.31e+008 6.8178871e-006 -0.0018463199 
4.32e+008 6.7863598e-006 -0.0018420461 
4.33e+008 6.7550506e-006 -0.0018377921 
4.34e+008 6.7239576e-006 -0.0018335576 
4.35e+008 6.6930788e-006 -0.0018293427 
4.36e+008 6.6624123e-006 -0.001825147 
4.37e+008 6.631956e-006 -0.0018209706 
4.38e+008 6.601708e-006 -0.0018168133 
4.39e+008 6.5716666e-006 -0.0018126748 
4.4e+008 6.5418297e-006 -0.0018085552 
4.41e+008 6.5121955e-006 -0.0018044543 
4.42e+008 6.4827623e-006 -0.0018003719 
4.43e+008 6.4535282e-006 -0.001796308 
4.44e+008 6.4244913e-006 -0.0017922624 
4.45e+008 6.39565e-006 -0.0017882349 
4.46e+008 6.3670025e-006 -0.0017842255 
4.47e+008 6.338547e-006 -0.0017802341 
4.48e+008 6.3102819e-006 -0.0017762604 
4.49e+008 6.2822054e-006 -0.0017723045 
4.5e+008 6.2543158e-006 -0.0017683661 
4.51e+008 6.2266116e-006 -0.0017644452 
4.52e+008 6.199091e-006 -0.0017605417 
4.53e+008 6.1717525e-006 -0.0017566554 
4.54e+008 6.1445945e-006 -0.0017527862 
4.55e+008 6.1176153e-006 -0.001748934 
4.56e+008 6.0908134e-006 -0.0017450987 
4.57e+008 6.0641872e-006 -0.0017412802 
4.58e+008 6.0377353e-006 -0.0017374784 
4.59e+008 6.011456e-006 -0.0017336931 
4.6e+008 5.985348e-006 -0.0017299243 
4.61e+008 5.9594097e-006 -0.0017261719 
4.62e+008 5.9336396e-006 -0.0017224357 
4.63e+008 5.9080363e-006 -0.0017187156 
4.64e+008 5.8825984e-006 -0.0017150115 
4.65e+008 5.8573244e-006 -0.0017113234 
4.66e+008 5.8322129e-006 -0.0017076511 
4.67e+008 5.8072626e-006 -0.0017039946 
4.68e+008 5.782472e-006 -0.0017003537 
4.69e+008 5.7578398e-006 -0.0016967283 
4.7e+008 5.7333647e-006 -0.0016931183 
4.71e+008 5.7090454e-006 -0.0016895236 
4.72e+008 5.6848804e-006 -0.0016859442 
4.73e+008 5.6608685e-006 -0.0016823799 
4.74e+008 5.6370085e-006 -0.0016788307 
4.75e+008 5.613299e-006 -0.0016752964 
4.76e+008 5.5897387e-006 -0.0016717769 
4.77e+008 5.5663265e-006 -0.0016682722 
4.78e+008 5.543061e-006 -0.0016647822 
4.79e+008 5.5199411e-006 -0.0016613067 
4.8e+008 5.4969656e-006 -0.0016578458 
4.81e+008 5.4741332e-006 -0.0016543992 
4.82e+008 5.4514428e-006 -0.0016509669 
4.83e+008 5.4288931e-006 -0.0016475488 
4.84e+008 5.4064831e-006 -0.0016441449 
4.85e+008 5.3842115e-006 -0.0016407549 
4.86e+008 5.3620773e-006 -0.001637379 
4.87e+008 5.3400793e-006 -0.0016340169 
4.88e+008 5.3182164e-006 -0.0016306685 
4.89e+008 5.2964875e-006 -0.0016273339 
4.9e+008 5.2748914e-006 -0.0016240129 
4.91e+008 5.2534272e-006 -0.0016207054 
4.92e+008 5.2320938e-006 -0.0016174114 
4.93e+008 5.21089e-006 -0.0016141307 
4.94e+008 5.1898148e-006 -0.0016108633 
4.95e+008 5.1688673e-006 -0.0016076091 
4.96e+008 5.1480463e-006 -0.001604368 
4.97e+008 5.1273509e-006 -0.0016011399 
4.98e+008 5.10678e-006 -0.0015979249 
4.99e+008 5.0863326e-006 -0.0015947227 
5e+008 5.0660079e-006 -0.0015915333 
5.01e+008 5.0458047e-006 -0.0015883567 
5.02e+008 5.0257221e-006 -0.0015851927 
5.03e+008 5.0057591e-006 -0.0015820412 
5.04e+008 4.9859149e-006 -0.0015789023 
5.05e+008 4.9661885e-006 -0.0015757759 
5.06e+008 4.9465789e-006 -0.0015726617 
5.07e+008 4.9270852e-006 -0.0015695599 
5.08e+008 4.9077065e-006 -0.0015664703 
5.09e+008 4.8884419e-006 -0.0015633928 
5.1e+008 4.8692905e-006 -0.0015603274 
5.11e+008 4.8502515e-006 -0.001557274 
5.12e+008 4.8313238e-006 -0.0015542325 
5.13e+008 4.8125068e-006 -0.0015512028 
5.14e+008 4.7937995e-006 -0.001548185 
5.15e+008 4.7752011e-006 -0.0015451789 
5.16e+008 4.7567106e-006 -0.0015421844 
5.17e+008 4.7383274e-006 -0.0015392015 
5.18e+008 4.7200505e-006 -0.0015362301 
5.19e+008 4.7018792e-006 -0.0015332702 
5.2e+008 4.6838126e-006 -0.0015303217 
5.21e+008 4.66585e-006 -0.0015273844 
5.22e+008 4.6479904e-006 -0.0015244585 
5.23e+008 4.6302332e-006 -0.0015215437 
5.24e+008 4.6125776e-006 -0.00151864 
5.25e+008 4.5950228e-006 -0.0015157474 
5.26e+008 4.577568e-006 -0.0015128658 
5.27e+008 4.5602125e-006 -0.0015099952 
5.28e+008 4.5429554e-006 -0.0015071354 
5.29e+008 4.5257962e-006 -0.0015042864 
5.3e+008 4.508734e-006 -0.0015014482 
5.31e+008 4.4917681e-006 -0.0014986207 
5.32e+008 4.4748977e-006 -0.0014958037 
5.33e+008 4.4581223e-006 -0.0014929974 
5.34e+008 4.441441e-006 -0.0014902016 
5.35e+008 4.4248531e-006 -0.0014874162 
5.36e+008 4.408358e-006 -0.0014846412 
5.37e+008 4.391955e-006 -0.0014818766 
5.38e+008 4.3756433e-006 -0.0014791222 
5.39e+008 4.3594224e-006 -0.0014763781 
5.4e+008 4.3432915e-006 -0.0014736441 
5.41e+008 4.3272499e-006 -0.0014709202 
5.42e+008 4.3112971e-006 -0.0014682064 
5.43e+008 4.2954323e-006 -0.0014655025 
5.44e+008 4.2796549e-006 -0.0014628086 
5.45e+008 4.2639643e-006 -0.0014601246 
5.46e+008 4.2483598e-006 -0.0014574505 
5.47e+008 4.2328408e-006 -0.0014547861 
5.48e+008 4.2174067e-006 -0.0014521314 
5.49e+008 4.2020569e-006 -0.0014494864 
5.5e+008 4.1867907e-006 -0.001446851 
5.51e+008 4.1716076e-006 -0.0014442252 
5.52e+008 4.1565069e-006 -0.0014416089 
5.53e+008 4.141488e-006 -0.001439002 
5.54e+008 4.1265504e-006 -0.0014364046 
5.55e+008 4.1116935e-006 -0.0014338165 
5.56e+008 4.0969166e-006 -0.0014312378 
5.57e+008 4.0822193e-006 -0.0014286683 
5.58e+008 4.0676009e-006 -0.001426108 
5.59e+008 4.0530609e-006 -0.0014235568 
5.6e+008 4.0385987e-006 -0.0014210148 
5.61e+008 4.0242138e-006 -0.0014184818 
5.62e+008 4.0099056e-006 -0.0014159579 
5.63e+008 3.9956736e-006 -0.0014134429 
5.64e+008 3.9815172e-006 -0.0014109368 
5.65e+008 3.967436e-006 -0.0014084396 
5.66e+008 3.9534293e-006 -0.0014059513 
5.67e+008 3.9394966e-006 -0.0014034717 
5.68e+008 3.9256374e-006 -0.0014010008 
5.69e+008 3.9118513e-006 -0.0013985386 
5.7e+008 3.8981376e-006 -0.0013960851 
5.71e+008 3.884496e-006 -0.0013936402 
5.72e+008 3.8709258e-006 -0.0013912038 
5.73e+008 3.8574266e-006 -0.0013887759 
5.74e+008 3.8439979e-006 -0.0013863564 
5.75e+008 3.8306392e-006 -0.0013839454 
5.76e+008 3.81735e-006 -0.0013815428 
5.77e+008 3.8041299e-006 -0.0013791485 
5.78e+008 3.7909783e-006 -0.0013767624 
5.79e+008 3.7778948e-006 -0.0013743846 
5.8e+008 3.7648789e-006 -0.001372015 
5.81e+008 3.7519301e-006 -0.0013696536 
5.82e+008 3.7390481e-006 -0.0013673003 
5.83e+008 3.7262323e-006 -0.001364955 
5.84e+008 3.7134822e-006 -0.0013626178 
5.85e+008 3.7007975e-006 -0.0013602886 
5.86e+008 3.6881777e-006 -0.0013579673 
5.87e+008 3.6756223e-006 -0.0013556539 
5.88e+008 3.6631309e-006 -0.0013533484 
5.89e+008 3.650703e-006 -0.0013510508 
5.9e+008 3.6383383e-006 -0.0013487609 
5.91e+008 3.6260364e-006 -0.0013464788 
5.92e+008 3.6137967e-006 -0.0013442043 
5.93e+008 3.6016189e-006 -0.0013419376 
5.94e+008 3.5895025e-006 -0.0013396785 
5.95e+008 3.5774472e-006 -0.0013374269 
5.96e+008 3.5654525e-006 -0.001335183 
5.97e+008 3.553518e-006 -0.0013329465 
5.98e+008 3.5416433e-006 -0.0013307175 
5.99e+008 3.5298281e-006 -0.001328496 
6e+008 3.5180719e-006 -0.0013262819 
6.01e+008 3.5063743e-006 -0.0013240751 
6.02e+008 3.494735e-006 -0.0013218757 
6.03e+008 3.4831535e-006 -0.0013196835 
6.04e+008 3.4716295e-006 -0.0013174987 
6.05e+008 3.4601626e-006 -0.001315321 
6.06e+008 3.4487525e-006 -0.0013131505 
6.07e+008 3.4373986e-006 -0.0013109872 
6.08e+008 3.4261008e-006 -0.001308831 
6.09e+008 3.4148585e-006 -0.0013066819 
6.1e+008 3.4036715e-006 -0.0013045398 
6.11e+008 3.3925394e-006 -0.0013024048 
6.12e+008 3.3814618e-006 -0.0013002767 
6.13e+008 3.3704384e-006 -0.0012981555 
6.14e+008 3.3594688e-006 -0.0012960413 
6.15e+008 3.3485526e-006 -0.001293934 
6.16e+008 3.3376896e-006 -0.0012918334 
6.17e+008 3.3268793e-006 -0.0012897397 
6.18e+008 3.3161215e-006 -0.0012876528 
6.19e+008 3.3054158e-006 -0.0012855726 
6.2e+008 3.2947618e-006 -0.0012834991 
6.21e+008 3.2841593e-006 -0.0012814323 
6.22e+008 3.2736079e-006 -0.0012793722 
6.23e+008 3.2631072e-006 -0.0012773187 
6.24e+008 3.252657e-006 -0.0012752717 
6.25e+008 3.2422569e-006 -0.0012732313 
6.26e+008 3.2319065e-006 -0.0012711974 
6.27e+008 3.2216057e-006 -0.00126917 
6.28e+008 3.2113541e-006 -0.0012671491 
6.29e+008 3.2011513e-006 -0.0012651345 
6.3e+008 3.190997e-006 -0.0012631264 
6.31e+008 3.180891e-006 -0.0012611246 
6.32e+008 3.1708329e-006 -0.0012591292 
6.33e+008 3.1608225e-006 -0.0012571401 
6.34e+008 3.1508593e-006 -0.0012551573 
6.35e+008 3.1409432e-006 -0.0012531807 
6.36e+008 3.1310739e-006 -0.0012512103 
6.37e+008 3.121251e-006 -0.0012492461 
6.38e+008 3.1114742e-006 -0.001247288 
6.39e+008 3.1017433e-006 -0.0012453361 
6.4e+008 3.092058e-006 -0.0012433903 
6.41e+008 3.082418e-006 -0.0012414506 
6.42e+008 3.072823e-006 -0.0012395169 
6.43e+008 3.0632727e-006 -0.0012375892 
6.44e+008 3.0537669e-006 -0.0012356675 
6.45e+008 3.0443052e-006 -0.0012337517 
6.46e+008 3.0348875e-006 -0.0012318419 
6.47e+008 3.0255134e-006 -0.001229938 
6.48e+008 3.0161826e-006 -0.00122804 
6.49e+008 3.006895e-006 -0.0012261478 
6.5e+008 2.9976502e-006 -0.0012242615 
6.51e+008 2.9884479e-006 -0.0012223809 
6.52e+008 2.979288e-006 -0.0012205061 
6.53e+008 2.9701701e-006 -0.001218637 
6.54e+008 2.961094e-006 -0.0012167737 
6.55e+008 2.9520595e-006 -0.0012149161 
6.56e+008 2.9430662e-006 -0.0012130641 
6.57e+008 2.934114e-006 -0.0012112177 
6.58e+008 2.9252025e-006 -0.001209377 
6.59e+008 2.9163316e-006 -0.0012075418 
6.6e+008 2.907501e-006 -0.0012057123 
6.61e+008 2.8987104e-006 -0.0012038882 
6.62e+008 2.8899596e-006 -0.0012020697 
6.63e+008 2.8812484e-006 -0.0012002566 
6.64e+008 2.8725766e-006 -0.001198449 
6.65e+008 2.8639438e-006 -0.0011966469 
6.66e+008 2.8553499e-006 -0.0011948501 
6.67e+008 2.8467946e-006 -0.0011930587 
6.68e+008 2.8382777e-006 -0.0011912728 
6.69e+008 2.8297989e-006 -0.0011894921 
6.7e+008 2.8213581e-006 -0.0011877168 
6.71e+008 2.812955e-006 -0.0011859467 
6.72e+008 2.8045894e-006 -0.0011841819 
6.73e+008 2.796261e-006 -0.0011824224 
6.74e+008 2.7879697e-006 -0.0011806681 
6.75e+008 2.7797152e-006 -0.001178919 
6.76e+008 2.7714974e-006 -0.001177175 
6.77e+008 2.7633159e-006 -0.0011754362 
6.78e+008 2.7551705e-006 -0.0011737026 
6.79e+008 2.7470612e-006 -0.001171974 
6.8e+008 2.7389876e-006 -0.0011702505 
6.81e+008 2.7309495e-006 -0.0011685321 
6.82e+008 2.7229468e-006 -0.0011668187 
6.83e+008 2.7149792e-006 -0.0011651104 
6.84e+008 2.7070465e-006 -0.001163407 
6.85e+008 2.6991485e-006 -0.0011617086 
6.86e+008 2.691285e-006 -0.0011600152 
6.87e+008 2.6834559e-006 -0.0011583267 
6.88e+008 2.6756609e-006 -0.0011566431 
6.89e+008 2.6678998e-006 -0.0011549644 
6.9e+008 2.6601724e-006 -0.0011532906 
6.91e+008 2.6524785e-006 -0.0011516216 
6.92e+008 2.6448179e-006 -0.0011499574 
6.93e+008 2.6371905e-006 -0.001148298 
6.94e+008 2.6295961e-006 -0.0011466434 
6.95e+008 2.6220344e-006 -0.0011449936 
6.96e+008 2.6145052e-006 -0.0011433485 
6.97e+008 2.6070085e-006 -0.0011417081 
6.98e+008 2.599544e-006 -0.0011400725 
6.99e+008 2.5921114e-006 -0.0011384415 
7e+008 2.5847107e-006 -0.0011368151 
7.01e+008 2.5773417e-006 -0.0011351935 
7.02e+008 2.5700041e-006 -0.0011335764 
7.03e+008 2.5626978e-006 -0.0011319639 
7.04e+008 2.5554226e-006 -0.001130356 
7.05e+008 2.5481783e-006 -0.0011287527 
7.06e+008 2.5409649e-006 -0.0011271539 
7.07e+008 2.533782e-006 -0.0011255597 
7.08e+008 2.5266295e-006 -0.0011239699 
7.09e+008 2.5195072e-006 -0.0011223846 
7.1e+008 2.5124151e-006 -0.0011208038 
7.11e+008 2.5053528e-006 -0.0011192275 
7.12e+008 2.4983203e-006 -0.0011176555 
7.13e+008 2.4913173e-006 -0.001116088 
7.14e+008 2.4843437e-006 -0.0011145249 
7.15e+008 2.4773994e-006 -0.0011129661 
7.16e+008 2.4704842e-006 -0.0011114117 
7.17e+008 2.4635979e-006 -0.0011098616 
7.18e+008 2.4567403e-006 -0.0011083159 
7.19e+008 2.4499113e-006 -0.0011067744 
7.2e+008 2.4431107e-006 -0.0011052373 
7.21e+008 2.4363385e-006 -0.0011037044 
7.22e+008 2.4295943e-006 -0.0011021757 
7.23e+008 2.4228781e-006 -0.0011006513 
7.24e+008 2.4161897e-006 -0.001099131 
7.25e+008 2.409529e-006 -0.001097615 
7.26e+008 2.4028958e-006 -0.0010961032 
7.27e+008 2.3962899e-006 -0.0010945955 
7.28e+008 2.3897113e-006 -0.0010930919 
7.29e+008 2.3831597e-006 -0.0010915925 
7.3e+008 2.376635e-006 -0.0010900972 
7.31e+008 2.370137e-006 -0.0010886059 
7.32e+008 2.3636657e-006 -0.0010871188 
7.33e+008 2.3572208e-006 -0.0010856357 
7.34e+008 2.3508023e-006 -0.0010841566 
7.35e+008 2.3444099e-006 -0.0010826816 
7.36e+008 2.3380436e-006 -0.0010812106 
7.37e+008 2.3317032e-006 -0.0010797436 
7.38e+008 2.3253885e-006 -0.0010782805 
7.39e+008 2.3190995e-006 -0.0010768214 
7.4e+008 2.3128359e-006 -0.0010753663 
7.41e+008 2.3065977e-006 -0.001073915 
7.42e+008 2.3003846e-006 -0.0010724677 
7.43e+008 2.2941967e-006 -0.0010710243 