! AWR Design Environment (7670) Tue Mar 15 17:30:09 2016
! Document = 'Schematic 1'
! nPorts: 1, nXvals: 1000

# HZ Z RI R 50
!Freq ReZ11 ImZ11 
1000000 2 0 
2000000 2 0 
3000000 2 0 
4000000 2 0 
5000000 2 0 
6000000 2 0 
7000000 2 0 
8000000 2 0 
9000000 2 0 
10000000 2 0 
11000000 2 0 
12000000 2 0 
13000000 2 0 
14000000 2 0 
15000000 2 0 
16000000 2 0 
17000000 2 0 
18000000 2 0 
19000000 2 0 
20000000 2 0 
21000000 2 0 
22000000 2 0 
23000000 2 0 
24000000 2 0 
25000000 2 0 
26000000 2 0 
27000000 2 0 
28000000 2 0 
29000000 2 0 
30000000 2 0 
31000000 2 0 
32000000 2 0 
33000000 2 0 
34000000 2 0 
35000000 2 0 
36000000 2 0 
37000000 2 0 
38000000 2 0 
39000000 2 0 
40000000 2 0 
41000000 2 0 
42000000 2 0 
43000000 2 0 
44000000 2 0 
45000000 2 0 
46000000 2 0 
47000000 2 0 
48000000 2 0 
49000000 2 0 
50000000 2 0 
51000000 2 0 
52000000 2 0 
53000000 2 0 
54000000 2 0 
55000000 2 0 
56000000 2 0 
57000000 2 0 
58000000 2 0 
59000000 2 0 
60000000 2 0 
61000000 2 0 
62000000 2 0 
63000000 2 0 
64000000 2 0 
65000000 2 0 
66000000 2 0 
67000000 2 0 
68000000 2 0 
69000000 2 0 
70000000 2 0 
71000000 2 0 
72000000 2 0 
73000000 2 0 
74000000 2 0 
75000000 2 0 
76000000 2 0 
77000000 2 0 
78000000 2 0 
79000000 2 0 
80000000 2 0 
81000000 2 0 
82000000 2 0 
83000000 2 0 
84000000 2 0 
85000000 2 0 
86000000 2 0 
87000000 2 0 
88000000 2 0 
89000000 2 0 
90000000 2 0 
91000000 2 0 
92000000 2 0 
93000000 2 0 
94000000 2 0 
95000000 2 0 
96000000 2 0 
97000000 2 0 
98000000 2 0 
99000000 2 0 
1e+008 2 0 
1.01e+008 2 0 
1.02e+008 2 0 
1.03e+008 2 0 
1.04e+008 2 0 
1.05e+008 2 0 
1.06e+008 2 0 
1.07e+008 2 0 
1.08e+008 2 0 
1.09e+008 2 0 
1.1e+008 2 0 
1.11e+008 2 0 
1.12e+008 2 0 
1.13e+008 2 0 
1.14e+008 2 0 
1.15e+008 2 0 
1.16e+008 2 0 
1.17e+008 2 0 
1.18e+008 2 0 
1.19e+008 2 0 
1.2e+008 2 0 
1.21e+008 2 0 
1.22e+008 2 0 
1.23e+008 2 0 
1.24e+008 2 0 
1.25e+008 2 0 
1.26e+008 2 0 
1.27e+008 2 0 
1.28e+008 2 0 
1.29e+008 2 0 
1.3e+008 2 0 
1.31e+008 2 0 
1.32e+008 2 0 
1.33e+008 2 0 
1.34e+008 2 0 
1.35e+008 2 0 
1.36e+008 2 0 
1.37e+008 2 0 
1.38e+008 2 0 
1.39e+008 2 0 
1.4e+008 2 0 
1.41e+008 2 0 
1.42e+008 2 0 
1.43e+008 2 0 
1.44e+008 2 0 
1.45e+008 2 0 
1.46e+008 2 0 
1.47e+008 2 0 
1.48e+008 2 0 
1.49e+008 2 0 
1.5e+008 2 0 
1.51e+008 2 0 
1.52e+008 2 0 
1.53e+008 2 0 
1.54e+008 2 0 
1.55e+008 2 0 
1.56e+008 2 0 
1.57e+008 2 0 
1.58e+008 2 0 
1.59e+008 2 0 
1.6e+008 2 0 
1.61e+008 2 0 
1.62e+008 2 0 
1.63e+008 2 0 
1.64e+008 2 0 
1.65e+008 2 0 
1.66e+008 2 0 
1.67e+008 2 0 
1.68e+008 2 0 
1.69e+008 2 0 
1.7e+008 2 0 
1.71e+008 2 0 
1.72e+008 2 0 
1.73e+008 2 0 
1.74e+008 2 0 
1.75e+008 2 0 
1.76e+008 2 0 
1.77e+008 2 0 
1.78e+008 2 0 
1.79e+008 2 0 
1.8e+008 2 0 
1.81e+008 2 0 
1.82e+008 2 0 
1.83e+008 2 0 
1.84e+008 2 0 
1.85e+008 2 0 
1.86e+008 2 0 
1.87e+008 2 0 
1.88e+008 2 0 
1.89e+008 2 0 
1.9e+008 2 0 
1.91e+008 2 0 
1.92e+008 2 0 
1.93e+008 2 0 
1.94e+008 2 0 
1.95e+008 2 0 
1.96e+008 2 0 
1.97e+008 2 0 
1.98e+008 2 0 
1.99e+008 2 0 
2e+008 2 0 
2.01e+008 2 0 
2.02e+008 2 0 
2.03e+008 2 0 
2.04e+008 2 0 
2.05e+008 2 0 
2.06e+008 2 0 
2.07e+008 2 0 
2.08e+008 2 0 
2.09e+008 2 0 
2.1e+008 2 0 
2.11e+008 2 0 
2.12e+008 2 0 
2.13e+008 2 0 
2.14e+008 2 0 
2.15e+008 2 0 
2.16e+008 2 0 
2.17e+008 2 0 
2.18e+008 2 0 
2.19e+008 2 0 
2.2e+008 2 0 
2.21e+008 2 0 
2.22e+008 2 0 
2.23e+008 2 0 
2.24e+008 2 0 
2.25e+008 2 0 
2.26e+008 2 0 
2.27e+008 2 0 
2.28e+008 2 0 
2.29e+008 2 0 
2.3e+008 2 0 
2.31e+008 2 0 
2.32e+008 2 0 
2.33e+008 2 0 
2.34e+008 2 0 
2.35e+008 2 0 
2.36e+008 2 0 
2.37e+008 2 0 
2.38e+008 2 0 
2.39e+008 2 0 
2.4e+008 2 0 
2.41e+008 2 0 
2.42e+008 2 0 
2.43e+008 2 0 
2.44e+008 2 0 
2.45e+008 2 0 
2.46e+008 2 0 
2.47e+008 2 0 
2.48e+008 2 0 
2.49e+008 2 0 
2.5e+008 2 0 
2.51e+008 2 0 
2.52e+008 2 0 
2.53e+008 2 0 
2.54e+008 2 0 
2.55e+008 2 0 
2.56e+008 2 0 
2.57e+008 2 0 
2.58e+008 2 0 
2.59e+008 2 0 
2.6e+008 2 0 
2.61e+008 2 0 
2.62e+008 2 0 
2.63e+008 2 0 
2.64e+008 2 0 
2.65e+008 2 0 
2.66e+008 2 0 
2.67e+008 2 0 
2.68e+008 2 0 
2.69e+008 2 0 
2.7e+008 2 0 
2.71e+008 2 0 
2.72e+008 2 0 
2.73e+008 2 0 
2.74e+008 2 0 
2.75e+008 2 0 
2.76e+008 2 0 
2.77e+008 2 0 
2.78e+008 2 0 
2.79e+008 2 0 
2.8e+008 2 0 
2.81e+008 2 0 
2.82e+008 2 0 
2.83e+008 2 0 
2.84e+008 2 0 
2.85e+008 2 0 
2.86e+008 2 0 
2.87e+008 2 0 
2.88e+008 2 0 
2.89e+008 2 0 
2.9e+008 2 0 
2.91e+008 2 0 
2.92e+008 2 0 
2.93e+008 2 0 
2.94e+008 2 0 
2.95e+008 2 0 
2.96e+008 2 0 
2.97e+008 2 0 
2.98e+008 2 0 
2.99e+008 2 0 
3e+008 2 0 
3.01e+008 2 0 
3.02e+008 2 0 
3.03e+008 2 0 
3.04e+008 2 0 
3.05e+008 2 0 
3.06e+008 2 0 
3.07e+008 2 0 
3.08e+008 2 0 
3.09e+008 2 0 
3.1e+008 2 0 
3.11e+008 2 0 
3.12e+008 2 0 
3.13e+008 2 0 
3.14e+008 2 0 
3.15e+008 2 0 
3.16e+008 2 0 
3.17e+008 2 0 
3.18e+008 2 0 
3.19e+008 2 0 
3.2e+008 2 0 
3.21e+008 2 0 
3.22e+008 2 0 
3.23e+008 2 0 
3.24e+008 2 0 
3.25e+008 2 0 
3.26e+008 2 0 
3.27e+008 2 0 
3.28e+008 2 0 
3.29e+008 2 0 
3.3e+008 2 0 
3.31e+008 2 0 
3.32e+008 2 0 
3.33e+008 2 0 
3.34e+008 2 0 
3.35e+008 2 0 
3.36e+008 2 0 
3.37e+008 2 0 
3.38e+008 2 0 
3.39e+008 2 0 
3.4e+008 2 0 
3.41e+008 2 0 
3.42e+008 2 0 
3.43e+008 2 0 
3.44e+008 2 0 
3.45e+008 2 0 
3.46e+008 2 0 
3.47e+008 2 0 
3.48e+008 2 0 
3.49e+008 2 0 
3.5e+008 2 0 
3.51e+008 2 0 
3.52e+008 2 0 
3.53e+008 2 0 
3.54e+008 2 0 
3.55e+008 2 0 
3.56e+008 2 0 
3.57e+008 2 0 
3.58e+008 2 0 
3.59e+008 2 0 
3.6e+008 2 0 
3.61e+008 2 0 
3.62e+008 2 0 
3.63e+008 2 0 
3.64e+008 2 0 
3.65e+008 2 0 
3.66e+008 2 0 
3.67e+008 2 0 
3.68e+008 2 0 
3.69e+008 2 0 
3.7e+008 2 0 
3.71e+008 2 0 
3.72e+008 2 0 
3.73e+008 2 0 
3.74e+008 2 0 
3.75e+008 2 0 
3.76e+008 2 0 
3.77e+008 2 0 
3.78e+008 2 0 
3.79e+008 2 0 
3.8e+008 2 0 
3.81e+008 2 0 
3.82e+008 2 0 
3.83e+008 2 0 
3.84e+008 2 0 
3.85e+008 2 0 
3.86e+008 2 0 
3.87e+008 2 0 
3.88e+008 2 0 
3.89e+008 2 0 
3.9e+008 2 0 
3.91e+008 2 0 
3.92e+008 2 0 
3.93e+008 2 0 
3.94e+008 2 0 
3.95e+008 2 0 
3.96e+008 2 0 
3.97e+008 2 0 
3.98e+008 2 0 
3.99e+008 2 0 
4e+008 2 0 
4.01e+008 2 0 
4.02e+008 2 0 
4.03e+008 2 0 
4.04e+008 2 0 
4.05e+008 2 0 
4.06e+008 2 0 
4.07e+008 2 0 
4.08e+008 2 0 
4.09e+008 2 0 
4.1e+008 2 0 
4.11e+008 2 0 
4.12e+008 2 0 
4.13e+008 2 0 
4.14e+008 2 0 
4.15e+008 2 0 
4.16e+008 2 0 
4.17e+008 2 0 
4.18e+008 2 0 
4.19e+008 2 0 
4.2e+008 2 0 
4.21e+008 2 0 
4.22e+008 2 0 
4.23e+008 2 0 
4.24e+008 2 0 
4.25e+008 2 0 
4.26e+008 2 0 
4.27e+008 2 0 
4.28e+008 2 0 
4.29e+008 2 0 
4.3e+008 2 0 
4.31e+008 2 0 
4.32e+008 2 0 
4.33e+008 2 0 
4.34e+008 2 0 
4.35e+008 2 0 
4.36e+008 2 0 
4.37e+008 2 0 
4.38e+008 2 0 
4.39e+008 2 0 
4.4e+008 2 0 
4.41e+008 2 0 
4.42e+008 2 0 
4.43e+008 2 0 
4.44e+008 2 0 
4.45e+008 2 0 
4.46e+008 2 0 
4.47e+008 2 0 
4.48e+008 2 0 
4.49e+008 2 0 
4.5e+008 2 0 
4.51e+008 2 0 
4.52e+008 2 0 
4.53e+008 2 0 
4.54e+008 2 0 
4.55e+008 2 0 
4.56e+008 2 0 
4.57e+008 2 0 
4.58e+008 2 0 
4.59e+008 2 0 
4.6e+008 2 0 
4.61e+008 2 0 
4.62e+008 2 0 
4.63e+008 2 0 
4.64e+008 2 0 
4.65e+008 2 0 
4.66e+008 2 0 
4.67e+008 2 0 
4.68e+008 2 0 
4.69e+008 2 0 
4.7e+008 2 0 
4.71e+008 2 0 
4.72e+008 2 0 
4.73e+008 2 0 
4.74e+008 2 0 
4.75e+008 2 0 
4.76e+008 2 0 
4.77e+008 2 0 
4.78e+008 2 0 
4.79e+008 2 0 
4.8e+008 2 0 
4.81e+008 2 0 
4.82e+008 2 0 
4.83e+008 2 0 
4.84e+008 2 0 
4.85e+008 2 0 
4.86e+008 2 0 
4.87e+008 2 0 
4.88e+008 2 0 
4.89e+008 2 0 
4.9e+008 2 0 
4.91e+008 2 0 
4.92e+008 2 0 
4.93e+008 2 0 
4.94e+008 2 0 
4.95e+008 2 0 
4.96e+008 2 0 
4.97e+008 2 0 
4.98e+008 2 0 
4.99e+008 2 0 
5e+008 2 0 
5.01e+008 2 0 
5.02e+008 2 0 
5.03e+008 2 0 
5.04e+008 2 0 
5.05e+008 2 0 
5.06e+008 2 0 
5.07e+008 2 0 
5.08e+008 2 0 
5.09e+008 2 0 
5.1e+008 2 0 
5.11e+008 2 0 
5.12e+008 2 0 
5.13e+008 2 0 
5.14e+008 2 0 
5.15e+008 2 0 
5.16e+008 2 0 
5.17e+008 2 0 
5.18e+008 2 0 
5.19e+008 2 0 
5.2e+008 2 0 
5.21e+008 2 0 
5.22e+008 2 0 
5.23e+008 2 0 
5.24e+008 2 0 
5.25e+008 2 0 
5.26e+008 2 0 
5.27e+008 2 0 
5.28e+008 2 0 
5.29e+008 2 0 
5.3e+008 2 0 
5.31e+008 2 0 
5.32e+008 2 0 
5.33e+008 2 0 
5.34e+008 2 0 
5.35e+008 2 0 
5.36e+008 2 0 
5.37e+008 2 0 
5.38e+008 2 0 
5.39e+008 2 0 
5.4e+008 2 0 
5.41e+008 2 0 
5.42e+008 2 0 
5.43e+008 2 0 
5.44e+008 2 0 
5.45e+008 2 0 
5.46e+008 2 0 
5.47e+008 2 0 
5.48e+008 2 0 
5.49e+008 2 0 
5.5e+008 2 0 
5.51e+008 2 0 
5.52e+008 2 0 
5.53e+008 2 0 
5.54e+008 2 0 
5.55e+008 2 0 
5.56e+008 2 0 
5.57e+008 2 0 
5.58e+008 2 0 
5.59e+008 2 0 
5.6e+008 2 0 
5.61e+008 2 0 
5.62e+008 2 0 
5.63e+008 2 0 
5.64e+008 2 0 
5.65e+008 2 0 
5.66e+008 2 0 
5.67e+008 2 0 
5.68e+008 2 0 
5.69e+008 2 0 
5.7e+008 2 0 
5.71e+008 2 0 
5.72e+008 2 0 
5.73e+008 2 0 
5.74e+008 2 0 
5.75e+008 2 0 
5.76e+008 2 0 
5.77e+008 2 0 
5.78e+008 2 0 
5.79e+008 2 0 
5.8e+008 2 0 
5.81e+008 2 0 
5.82e+008 2 0 
5.83e+008 2 0 
5.84e+008 2 0 
5.85e+008 2 0 
5.86e+008 2 0 
5.87e+008 2 0 
5.88e+008 2 0 
5.89e+008 2 0 
5.9e+008 2 0 
5.91e+008 2 0 
5.92e+008 2 0 
5.93e+008 2 0 
5.94e+008 2 0 
5.95e+008 2 0 
5.96e+008 2 0 
5.97e+008 2 0 
5.98e+008 2 0 
5.99e+008 2 0 
6e+008 2 0 
6.01e+008 2 0 
6.02e+008 2 0 
6.03e+008 2 0 
6.04e+008 2 0 
6.05e+008 2 0 
6.06e+008 2 0 
6.07e+008 2 0 
6.08e+008 2 0 
6.09e+008 2 0 
6.1e+008 2 0 
6.11e+008 2 0 
6.12e+008 2 0 
6.13e+008 2 0 
6.14e+008 2 0 
6.15e+008 2 0 
6.16e+008 2 0 
6.17e+008 2 0 
6.18e+008 2 0 
6.19e+008 2 0 
6.2e+008 2 0 
6.21e+008 2 0 
6.22e+008 2 0 
6.23e+008 2 0 
6.24e+008 2 0 
6.25e+008 2 0 
6.26e+008 2 0 
6.27e+008 2 0 
6.28e+008 2 0 
6.29e+008 2 0 
6.3e+008 2 0 
6.31e+008 2 0 
6.32e+008 2 0 
6.33e+008 2 0 
6.34e+008 2 0 
6.35e+008 2 0 
6.36e+008 2 0 
6.37e+008 2 0 
6.38e+008 2 0 
6.39e+008 2 0 
6.4e+008 2 0 
6.41e+008 2 0 
6.42e+008 2 0 
6.43e+008 2 0 
6.44e+008 2 0 
6.45e+008 2 0 
6.46e+008 2 0 
6.47e+008 2 0 
6.48e+008 2 0 
6.49e+008 2 0 
6.5e+008 2 0 
6.51e+008 2 0 
6.52e+008 2 0 
6.53e+008 2 0 
6.54e+008 2 0 
6.55e+008 2 0 
6.56e+008 2 0 
6.57e+008 2 0 
6.58e+008 2 0 
6.59e+008 2 0 
6.6e+008 2 0 
6.61e+008 2 0 
6.62e+008 2 0 
6.63e+008 2 0 
6.64e+008 2 0 
6.65e+008 2 0 
6.66e+008 2 0 
6.67e+008 2 0 
6.68e+008 2 0 
6.69e+008 2 0 
6.7e+008 2 0 
6.71e+008 2 0 
6.72e+008 2 0 
6.73e+008 2 0 
6.74e+008 2 0 
6.75e+008 2 0 
6.76e+008 2 0 
6.77e+008 2 0 
6.78e+008 2 0 
6.79e+008 2 0 
6.8e+008 2 0 
6.81e+008 2 0 
6.82e+008 2 0 
6.83e+008 2 0 
6.84e+008 2 0 
6.85e+008 2 0 
6.86e+008 2 0 
6.87e+008 2 0 
6.88e+008 2 0 
6.89e+008 2 0 
6.9e+008 2 0 
6.91e+008 2 0 
6.92e+008 2 0 
6.93e+008 2 0 
6.94e+008 2 0 
6.95e+008 2 0 
6.96e+008 2 0 
6.97e+008 2 0 
6.98e+008 2 0 
6.99e+008 2 0 
7e+008 2 0 
7.01e+008 2 0 
7.02e+008 2 0 
7.03e+008 2 0 
7.04e+008 2 0 
7.05e+008 2 0 
7.06e+008 2 0 
7.07e+008 2 0 
7.08e+008 2 0 
7.09e+008 2 0 
7.1e+008 2 0 
7.11e+008 2 0 
7.12e+008 2 0 
7.13e+008 2 0 
7.14e+008 2 0 
7.15e+008 2 0 
7.16e+008 2 0 
7.17e+008 2 0 
7.18e+008 2 0 
7.19e+008 2 0 
7.2e+008 2 0 
7.21e+008 2 0 
7.22e+008 2 0 
7.23e+008 2 0 
7.24e+008 2 0 
7.25e+008 2 0 
7.26e+008 2 0 
7.27e+008 2 0 
7.28e+008 2 0 
7.29e+008 2 0 
7.3e+008 2 0 
7.31e+008 2 0 
7.32e+008 2 0 
7.33e+008 2 0 
7.34e+008 2 0 
7.35e+008 2 0 
7.36e+008 2 0 
7.37e+008 2 0 
7.38e+008 2 0 
7.39e+008 2 0 
7.4e+008 2 0 
7.41e+008 2 0 
7.42e+008 2 0 
7.43e+008 2 0 
7.44e+008 2 0 
7.45e+008 2 0 
7.46e+008 2 0 
7.47e+008 2 0 
7.48e+008 2 0 
7.49e+008 2 0 
7.5e+008 2 0 
7.51e+008 2 0 
7.52e+008 2 0 
7.53e+008 2 0 
7.54e+008 2 0 
7.55e+008 2 0 
7.56e+008 2 0 
7.57e+008 2 0 
7.58e+008 2 0 
7.59e+008 2 0 
7.6e+008 2 0 
7.61e+008 2 0 
7.62e+008 2 0 
7.63e+008 2 0 
7.64e+008 2 0 
7.65e+008 2 0 
7.66e+008 2 0 
7.67e+008 2 0 
7.68e+008 2 0 
7.69e+008 2 0 
7.7e+008 2 0 
7.71e+008 2 0 
7.72e+008 2 0 
7.73e+008 2 0 
7.74e+008 2 0 
7.75e+008 2 0 
7.76e+008 2 0 
7.77e+008 2 0 
7.78e+008 2 0 
7.79e+008 2 0 
7.8e+008 2 0 
7.81e+008 2 0 
7.82e+008 2 0 
7.83e+008 2 0 
7.84e+008 2 0 
7.85e+008 2 0 
7.86e+008 2 0 
7.87e+008 2 0 
7.88e+008 2 0 
7.89e+008 2 0 
7.9e+008 2 0 
7.91e+008 2 0 
7.92e+008 2 0 
7.93e+008 2 0 
7.94e+008 2 0 
7.95e+008 2 0 
7.96e+008 2 0 
7.97e+008 2 0 
7.98e+008 2 0 
7.99e+008 2 0 
8e+008 2 0 
8.01e+008 2 0 
8.02e+008 2 0 
8.03e+008 2 0 
8.04e+008 2 0 
8.05e+008 2 0 
8.06e+008 2 0 
8.07e+008 2 0 
8.08e+008 2 0 
8.09e+008 2 0 
8.1e+008 2 0 
8.11e+008 2 0 
8.12e+008 2 0 
8.13e+008 2 0 
8.14e+008 2 0 
8.15e+008 2 0 
8.16e+008 2 0 
8.17e+008 2 0 
8.18e+008 2 0 
8.19e+008 2 0 
8.2e+008 2 0 
8.21e+008 2 0 
8.22e+008 2 0 
8.23e+008 2 0 
8.24e+008 2 0 
8.25e+008 2 0 
8.26e+008 2 0 
8.27e+008 2 0 
8.28e+008 2 0 
8.29e+008 2 0 
8.3e+008 2 0 
8.31e+008 2 0 
8.32e+008 2 0 
8.33e+008 2 0 
8.34e+008 2 0 
8.35e+008 2 0 
8.36e+008 2 0 
8.37e+008 2 0 
8.38e+008 2 0 
8.39e+008 2 0 
8.4e+008 2 0 
8.41e+008 2 0 
8.42e+008 2 0 
8.43e+008 2 0 
8.44e+008 2 0 
8.45e+008 2 0 
8.46e+008 2 0 
8.47e+008 2 0 
8.48e+008 2 0 
8.49e+008 2 0 
8.5e+008 2 0 
8.51e+008 2 0 
8.52e+008 2 0 
8.53e+008 2 0 
8.54e+008 2 0 
8.55e+008 2 0 
8.56e+008 2 0 
8.57e+008 2 0 
8.58e+008 2 0 
8.59e+008 2 0 
8.6e+008 2 0 
8.61e+008 2 0 
8.62e+008 2 0 
8.63e+008 2 0 
8.64e+008 2 0 
8.65e+008 2 0 
8.66e+008 2 0 
8.67e+008 2 0 
8.68e+008 2 0 
8.69e+008 2 0 
8.7e+008 2 0 
8.71e+008 2 0 
8.72e+008 2 0 
8.73e+008 2 0 
8.74e+008 2 0 
8.75e+008 2 0 
8.76e+008 2 0 
8.77e+008 2 0 
8.78e+008 2 0 
8.79e+008 2 0 
8.8e+008 2 0 
8.81e+008 2 0 
8.82e+008 2 0 
8.83e+008 2 0 
8.84e+008 2 0 
8.85e+008 2 0 
8.86e+008 2 0 
8.87e+008 2 0 
8.88e+008 2 0 
8.89e+008 2 0 
8.9e+008 2 0 
8.91e+008 2 0 
8.92e+008 2 0 
8.93e+008 2 0 
8.94e+008 2 0 
8.95e+008 2 0 
8.96e+008 2 0 
8.97e+008 2 0 
8.98e+008 2 0 
8.99e+008 2 0 
9e+008 2 0 
9.01e+008 2 0 
9.02e+008 2 0 
9.03e+008 2 0 
9.04e+008 2 0 
9.05e+008 2 0 
9.06e+008 2 0 
9.07e+008 2 0 
9.08e+008 2 0 
9.09e+008 2 0 
9.1e+008 2 0 
9.11e+008 2 0 
9.12e+008 2 0 
9.13e+008 2 0 
9.14e+008 2 0 
9.15e+008 2 0 
9.16e+008 2 0 
9.17e+008 2 0 
9.18e+008 2 0 
9.19e+008 2 0 
9.2e+008 2 0 
9.21e+008 2 0 
9.22e+008 2 0 
9.23e+008 2 0 
9.24e+008 2 0 
9.25e+008 2 0 
9.26e+008 2 0 
9.27e+008 2 0 
9.28e+008 2 0 
9.29e+008 2 0 
9.3e+008 2 0 
9.31e+008 2 0 
9.32e+008 2 0 
9.33e+008 2 0 
9.34e+008 2 0 
9.35e+008 2 0 
9.36e+008 2 0 
9.37e+008 2 0 
9.38e+008 2 0 
9.39e+008 2 0 
9.4e+008 2 0 
9.41e+008 2 0 
9.42e+008 2 0 
9.43e+008 2 0 
9.44e+008 2 0 
9.45e+008 2 0 
9.46e+008 2 0 
9.47e+008 2 0 
9.48e+008 2 0 
9.49e+008 2 0 
9.5e+008 2 0 
9.51e+008 2 0 
9.52e+008 2 0 
9.53e+008 2 0 
9.54e+008 2 0 
9.55e+008 2 0 
9.56e+008 2 0 
9.57e+008 2 0 
9.58e+008 2 0 
9.59e+008 2 0 
9.6e+008 2 0 
9.61e+008 2 0 
9.62e+008 2 0 
9.63e+008 2 0 
9.64e+008 2 0 
9.65e+008 2 0 
9.66e+008 2 0 
9.67e+008 2 0 
9.68e+008 2 0 
9.69e+008 2 0 
9.7e+008 2 0 
9.71e+008 2 0 
9.72e+008 2 0 
9.73e+008 2 0 
9.74e+008 2 0 
9.75e+008 2 0 
9.76e+008 2 0 
9.77e+008 2 0 
9.78e+008 2 0 
9.79e+008 2 0 
9.8e+008 2 0 
9.81e+008 2 0 
9.82e+008 2 0 
9.83e+008 2 0 
9.84e+008 2 0 
9.85e+008 2 0 
9.86e+008 2 0 
9.87e+008 2 0 
9.88e+008 2 0 
9.89e+008 2 0 
9.9e+008 2 0 
9.91e+008 2 0 
9.92e+008 2 0 
9.93e+008 2 0 
9.94e+008 2 0 
9.95e+008 2 0 
9.96e+008 2 0 
9.97e+008 2 0 
9.98e+008 2 0 
9.99e+008 2 0 
1e+009 2 0 
