! AWR Design Environment (7670) Sun Feb 07 14:30:45 2016
! Document = 'messungen'
! nPorts: 1, nXvals: 5001

# HZ S MA R 50
!Freq MagS11 AngS11 
1000 0.99967916 179.98732 
1002.3052 0.99967889 179.98727 
1004.6158 0.99967862 179.98723 
1006.9317 0.99967836 179.98718 
1009.2529 0.99967809 179.98713 
1011.5795 0.99967782 179.98709 
1013.9114 0.99967755 179.98704 
1016.2487 0.99967634 179.98704 
1018.5914 0.9996748 179.98705 
1020.9395 0.99967327 179.98706 
1023.293 0.99967173 179.98707 
1025.6519 0.99967019 179.98708 
1028.0163 0.99966865 179.98709 
1030.3861 0.99966878 179.98705 
1032.7614 0.9996706 179.98696 
1035.1422 0.99967243 179.98687 
1037.5284 0.99967426 179.98678 
1039.9202 0.99967609 179.9867 
1042.3174 0.99967793 179.98661 
1044.7202 0.99967914 179.98654 
1047.1285 0.99967846 179.98652 
1049.5424 0.99967778 179.9865 
1051.9619 0.9996771 179.98648 
1054.3869 0.99967641 179.98646 
1056.8175 0.99967573 179.98644 
1059.2537 0.99967504 179.98642 
1061.6956 0.99967523 179.98646 
1064.143 0.99967543 179.98651 
1066.5961 0.99967562 179.98655 
1069.0549 0.99967582 179.98659 
1071.5193 0.99967602 179.98664 
1073.9894 0.99967621 179.98668 
1076.4652 0.99967639 179.98667 
1078.9467 0.99967656 179.98663 
1081.434 0.99967673 179.9866 
1083.9269 0.9996769 179.98657 
1086.4256 0.99967707 179.98653 
1088.9301 0.99967724 179.9865 
1091.4403 0.99967745 179.98642 
1093.9564 0.99967769 179.98631 
1096.4782 0.99967794 179.98619 
1099.0058 0.99967818 179.98607 
1101.5393 0.99967842 179.98595 
1104.0786 0.99967867 179.98584 
1106.6238 0.99967859 179.98578 
1109.1748 0.99967752 179.98591 
1111.7317 0.99967645 179.98604 
1114.2945 0.99967538 179.98618 
1116.8632 0.9996743 179.98631 
1119.4379 0.99967322 179.98644 
1122.0185 0.99967214 179.98657 
1124.605 0.9996718 179.98647 
1127.1975 0.99967146 179.98636 
1129.7959 0.99967112 179.98626 
1132.4004 0.99967078 179.98615 
1135.0108 0.99967044 179.98605 
1137.6273 0.99967009 179.98594 
1140.2498 0.9996711 179.98589 
1142.8783 0.99967256 179.98585 
1145.5129 0.99967402 179.98582 
1148.1536 0.99967548 179.98578 
1150.8004 0.99967695 179.98574 
1153.4533 0.99967842 179.98571 
1156.1122 0.99967837 179.98566 
1158.7774 0.99967679 179.98561 
1161.4486 0.99967521 179.98557 
1164.126 0.99967362 179.98552 
1166.8096 0.99967203 179.98547 
1169.4994 0.99967044 179.98542 
1172.1954 0.99966937 179.98536 
1174.8976 0.99966988 179.98526 
1177.606 0.99967039 179.98516 
1180.3206 0.9996709 179.98507 
1183.0416 0.99967142 179.98497 
1185.7687 0.99967193 179.98487 
1188.5022 0.99967245 179.98477 
1191.242 0.99967225 179.98478 
1193.9881 0.99967206 179.9848 
1196.7405 0.99967186 179.98481 
1199.4993 0.99967167 179.98482 
1202.2644 0.99967147 179.98483 
1205.0359 0.99967128 179.98484 
1207.8138 0.99967125 179.98479 
1210.5981 0.99967127 179.9847 
1213.3889 0.99967129 179.98462 
1216.186 0.99967132 179.98454 
1218.9896 0.99967134 179.98445 
1221.7997 0.99967137 179.98437 
1224.6162 0.99967241 179.98434 
1227.4392 0.99967447 179.98436 
1230.2688 0.99967654 179.98438 
1233.1048 0.99967862 179.9844 
1235.9474 0.9996807 179.98442 
1238.7966 0.99968278 179.98444 
1241.6523 0.99968428 179.98443 
1244.5146 0.99968404 179.98436 
1247.3835 0.9996838 179.98428 
1250.259 0.99968355 179.98421 
1253.1412 0.99968331 179.98413 
1256.03 0.99968307 179.98405 
1258.9254 0.99968282 179.98398 
1261.8275 0.99968175 179.98407 
1264.7363 0.99968068 179.98417 
1267.6519 0.99967961 179.98426 
1270.5741 0.99967854 179.98436 
1273.5031 0.99967746 179.98445 
1276.4388 0.99967638 179.98455 
1279.3813 0.99967587 179.98454 
1282.3306 0.99967556 179.98448 
1285.2867 0.99967524 179.98443 
1288.2496 0.99967492 179.98438 
1291.2193 0.9996746 179.98433 
1294.1958 0.99967429 179.98428 
1297.1793 0.99967406 179.9842 
1300.1696 0.99967394 179.98409 
1303.1668 0.99967382 179.98398 
1306.1709 0.9996737 179.98387 
1309.1819 0.99967358 179.98376 
1312.1999 0.99967345 179.98365 
1315.2248 0.99967367 179.98354 
1318.2567 0.99967488 179.98343 
1321.2956 0.9996761 179.98333 
1324.3415 0.99967732 179.98322 
1327.3945 0.99967854 179.98311 
1330.4544 0.99967976 179.983 
1333.5214 0.99968099 179.98289 
1336.5955 0.99967864 179.98291 
1339.6767 0.99967628 179.98293 
1342.765 0.99967391 179.98295 
1345.8604 0.99967154 179.98297 
1348.9629 0.99966917 179.98299 
1352.0726 0.99966679 179.98301 
1355.1894 0.9996677 179.983 
1358.3134 0.99966972 179.98298 
1361.4447 0.99967174 179.98296 
1364.5831 0.99967377 179.98293 
1367.7288 0.9996758 179.98291 
1370.8818 0.99967783 179.98289 
1374.042 0.99967906 179.98284 
1377.2095 0.99967947 179.98276 
1380.3843 0.99967989 179.98268 
1383.5664 0.9996803 179.9826 
1386.7558 0.99968072 179.98252 
1389.9526 0.99968113 179.98244 
1393.1568 0.99968159 179.98237 
1396.3684 0.99968218 179.98235 
1399.5873 0.99968276 179.98233 
1402.8137 0.99968334 179.98231 
1406.0475 0.99968393 179.98229 
1409.2888 0.99968452 179.98227 
1412.5375 0.99968511 179.98225 
1415.7938 0.99968336 179.98217 
1419.0575 0.99968161 179.98208 
1422.3288 0.99967986 179.982 
1425.6076 0.9996781 179.98191 
1428.894 0.99967633 179.98183 
1432.1879 0.99967457 179.98174 
1435.4894 0.99967449 179.98179 
1438.7986 0.99967498 179.98188 
1442.1154 0.99967546 179.98197 
1445.4398 0.99967595 179.98207 
1448.7719 0.99967644 179.98216 
1452.1116 0.99967693 179.98225 
1455.4591 0.99967714 179.98226 
1458.8143 0.99967707 179.98219 
1462.1772 0.99967699 179.98212 
1465.5478 0.99967692 179.98204 
1468.9263 0.99967685 179.98197 
1472.3125 0.99967677 179.9819 
1475.7065 0.99967705 179.98181 
1479.1084 0.99967839 179.98168 
1482.5181 0.99967972 179.98156 
1485.9356 0.99968107 179.98143 
1489.3611 0.99968241 179.9813 
1492.7944 0.99968376 179.98118 
1496.2357 0.99968511 179.98105 
1499.6848 0.99968402 179.98105 
1503.142 0.99968292 179.98104 
1506.6071 0.99968183 179.98104 
1510.0802 0.99968073 179.98104 
1513.5612 0.99967962 179.98104 
1517.0504 0.99967852 179.98103 
1520.5475 0.99967877 179.98089 
1524.0528 0.99967948 179.9807 
1527.5661 0.99968018 179.98051 
1531.0875 0.99968089 179.98032 
1534.617 0.9996816 179.98013 
1538.1546 0.99968231 179.97994 
1541.7005 0.99968244 179.97989 
1545.2544 0.99968198 179.97999 
1548.8166 0.99968151 179.98009 
1552.387 0.99968105 179.98018 
1555.9656 0.99968059 179.98028 
1559.5525 0.99968012 179.98038 
1563.1476 0.99967935 179.98044 
1566.7511 0.99967768 179.9804 
1570.3628 0.999676 179.98036 
1573.9829 0.99967432 179.98032 
1577.6113 0.99967263 179.98028 
1581.248 0.99967094 179.98024 
1584.8932 0.99966924 179.98019 
1588.5467 0.99966963 179.98017 
1592.2087 0.99967002 179.98015 
1595.8791 0.99967041 179.98013 
1599.558 0.9996708 179.98011 
1603.2454 0.99967119 179.98008 
1606.9413 0.99967159 179.98006 
1610.6456 0.99967201 179.98002 
1614.3586 0.99967245 179.97998 
1618.08 0.99967289 179.97993 
1621.8101 0.99967333 179.97988 
1625.5488 0.99967377 179.97984 
1629.296 0.99967421 179.97979 
1633.0519 0.99967437 179.97971 
1636.8165 0.99967425 179.97961 
1640.5898 0.99967413 179.97951 
1644.3717 0.999674 179.9794 
1648.1624 0.99967388 179.9793 
1651.9618 0.99967376 179.97919 
1655.77 0.99967363 179.97911 
1659.5869 0.99967346 179.9791 
1663.4127 0.99967329 179.97909 
1667.2472 0.99967311 179.97909 
1671.0906 0.99967294 179.97908 
1674.9429 0.99967277 179.97907 
1678.804 0.9996726 179.97906 
1682.6741 0.9996733 179.97903 
1686.553 0.99967401 179.979 
1690.4409 0.99967472 179.97896 
1694.3378 0.99967542 179.97893 
1698.2437 0.99967613 179.97889 
1702.1585 0.99967685 179.97886 
1706.0824 0.99967633 179.97879 
1710.0153 0.99967541 179.97871 
1713.9573 0.99967448 179.97863 
1717.9084 0.99967356 179.97855 
1721.8686 0.99967263 179.97847 
1725.8379 0.99967169 179.97839 
1729.8164 0.99967198 179.97832 
1733.804 0.99967348 179.97825 
1737.8008 0.99967499 179.97819 
1741.8069 0.99967651 179.97813 
1745.8222 0.99967802 179.97806 
1749.8467 0.99967954 179.978 
1753.8805 0.99968025 179.97794 
1757.9236 0.99967853 179.9779 
1761.976 0.9996768 179.97785 
1766.0378 0.99967507 179.97781 
1770.109 0.99967334 179.97776 
1774.1895 0.9996716 179.97772 
1778.2794 0.99966985 179.97768 
1782.3788 0.99967078 179.97768 
1786.4876 0.9996717 179.97768 
1790.6059 0.99967263 179.97768 
1794.7336 0.99967355 179.97768 
1798.8709 0.99967448 179.97768 
1803.0177 0.99967542 179.97768 
1807.1741 0.99967571 179.97757 
1811.3401 0.99967578 179.97742 
1815.5157 0.99967585 179.97727 
1819.7009 0.99967592 179.97712 
1823.8957 0.999676 179.97697 
1828.1002 0.99967607 179.97682 
1832.3144 0.99967612 179.97675 
1836.5383 0.99967614 179.97676 
1840.772 0.99967617 179.97676 
1845.0154 0.99967619 179.97677 
1849.2686 0.99967622 179.97678 
1853.5316 0.99967624 179.97679 
1857.8045 0.99967618 179.97678 
1862.0871 0.99967587 179.97675 
1866.3797 0.99967555 179.97671 
1870.6821 0.99967523 179.97668 
1874.9945 0.99967492 179.97665 
1879.3168 0.9996746 179.97661 
1883.6491 0.99967428 179.97658 
1887.9913 0.99967462 179.9765 
1892.3436 0.99967496 179.97642 
1896.7059 0.9996753 179.97634 
1901.0783 0.99967564 179.97627 
1905.4607 0.99967598 179.97619 
1909.8533 0.99967633 179.97611 
1914.2559 0.99967752 179.97602 
1918.6687 0.99967901 179.97592 
1923.0917 0.99968049 179.97583 
1927.5249 0.99968198 179.97573 
1931.9683 0.99968347 179.97564 
1936.422 0.99968497 179.97554 
1940.8859 0.99968516 179.9755 
1945.3601 0.99968404 179.97552 
1949.8446 0.99968292 179.97554 
1954.3395 0.9996818 179.97555 
1958.8447 0.99968068 179.97557 
1963.3603 0.99967955 179.97559 
1967.8863 0.9996786 179.97557 
1972.4227 0.99967822 179.97545 
1976.9696 0.99967783 179.97533 
1981.527 0.99967744 179.97521 
1986.0949 0.99967705 179.97508 
1990.6733 0.99967665 179.97496 
1995.2623 0.99967626 179.97484 
1999.8619 0.99967626 179.9748 
2004.472 0.99967626 179.97477 
2009.0928 0.99967626 179.97474 
2013.7242 0.99967626 179.9747 
2018.3664 0.99967626 179.97467 
2023.0192 0.99967626 179.97463 
2027.6827 0.99967622 179.97451 
2032.357 0.99967618 179.97436 
2037.0421 0.99967613 179.97421 
2041.7379 0.99967608 179.97406 
2046.4446 0.99967603 179.97391 
2051.1622 0.99967598 179.97375 
2055.8906 0.99967621 179.97369 
2060.6299 0.99967672 179.97372 
2065.3802 0.99967723 179.97375 
2070.1413 0.99967774 179.97378 
2074.9135 0.99967826 179.97381 
2079.6967 0.99967877 179.97384 
2084.4909 0.99967887 179.97384 
2089.2961 0.99967773 179.97378 
2094.1125 0.99967659 179.97371 
2098.9399 0.99967544 179.97364 
2103.7784 0.9996743 179.97357 
2108.6281 0.99967314 179.9735 
2113.489 0.99967199 179.97343 
2118.3611 0.99967245 179.97341 
2123.2445 0.99967291 179.97339 
2128.139 0.99967338 179.97336 
2133.0449 0.99967384 179.97334 
2137.9621 0.99967431 179.97331 
2142.8906 0.99967477 179.97329 
2147.8305 0.99967522 179.97327 
2152.7817 0.99967565 179.97326 
2157.7444 0.99967609 179.97324 
2162.7185 0.99967653 179.97323 
2167.7041 0.99967697 179.97321 
2172.7012 0.99967741 179.9732 
2177.7098 0.99967727 179.97313 
2182.7299 0.99967654 179.973 
2187.7616 0.99967581 179.97287 
2192.8049 0.99967508 179.97275 
2197.8599 0.99967435 179.97262 
2202.9265 0.99967361 179.97249 
2208.0047 0.9996734 179.97238 
2213.0947 0.99967476 179.97231 
2218.1964 0.99967612 179.97225 
2223.3099 0.99967748 179.97218 
2228.4351 0.99967885 179.97212 
2233.5722 0.99968022 179.97205 
2238.7211 0.9996816 179.97198 
2243.8819 0.99967951 179.972 
2249.0546 0.99967742 179.97201 
2254.2392 0.99967533 179.97202 
2259.4358 0.99967323 179.97203 
2264.6443 0.99967112 179.97205 
2269.8649 0.99966901 179.97206 
2275.0974 0.99966979 179.97199 
2280.3421 0.99967154 179.9719 
2285.5988 0.99967329 179.97181 
2290.8677 0.99967505 179.97171 
2296.1486 0.99967681 179.97162 
2301.4418 0.99967858 179.97153 
2306.7472 0.99967959 179.97146 
2312.0648 0.99967983 179.9714 
2317.3946 0.99968007 179.97135 
2322.7368 0.99968032 179.9713 
2328.0913 0.99968056 179.97125 
2333.4581 0.99968081 179.9712 
2338.8372 0.9996808 179.97113 
2344.2288 0.99968005 179.97102 
2349.6328 0.9996793 179.97091 
2355.0493 0.99967854 179.97081 
2360.4782 0.99967778 179.9707 
2365.9197 0.99967702 179.97058 
2371.3737 0.99967626 179.97047 
2376.8403 0.99967636 179.97038 
2382.3195 0.99967646 179.97028 
2387.8113 0.99967655 179.97018 
2393.3158 0.99967665 179.97008 
2398.8329 0.99967675 179.96999 
2404.3628 0.99967685 179.96989 
2409.9054 0.99967631 179.96979 
2415.4608 0.99967555 179.96969 
2421.029 0.9996748 179.9696 
2426.6101 0.99967404 179.9695 
2432.204 0.99967328 179.9694 
2437.8108 0.99967252 179.9693 
2443.4306 0.99967209 179.96925 
2449.0632 0.999672 179.96925 
2454.7089 0.9996719 179.96925 
2460.3676 0.9996718 179.96925 
2466.0393 0.9996717 179.96925 
2471.7241 0.99967161 179.96925 
2477.4221 0.99967171 179.96922 
2483.1331 0.99967244 179.9691 
2488.8573 0.99967317 179.96897 
2494.5947 0.9996739 179.96885 
2500.3454 0.99967464 179.96873 
2506.1093 0.99967537 179.9686 
2511.8864 0.99967611 179.96848 
2517.6769 0.99967657 179.96844 
2523.4808 0.99967703 179.96841 
2529.298 0.99967749 179.96837 
2535.1286 0.99967796 179.96834 
2540.9727 0.99967842 179.9683 
2546.8303 0.99967889 179.96827 
2552.7013 0.99967848 179.9682 
2558.5859 0.99967777 179.96812 
2564.484 0.99967707 179.96803 
2570.3958 0.99967636 179.96795 
2576.3212 0.99967565 179.96787 
2582.2602 0.99967494 179.96778 
2588.2129 0.99967421 179.96768 
2594.1794 0.99967345 179.96756 
2600.1596 0.9996727 179.96745 
2606.1535 0.99967194 179.96733 
2612.1614 0.99967119 179.96721 
2618.183 0.99967043 179.96709 
2624.2185 0.99966991 179.96699 
2630.268 0.99967013 179.96698 
2636.3314 0.99967035 179.96696 
2642.4088 0.99967057 179.96695 
2648.5001 0.99967079 179.96693 
2654.6056 0.99967101 179.96692 
2660.7251 0.99967123 179.9669 
2666.8587 0.99967251 179.9668 
2673.0064 0.9996738 179.96669 
2679.1683 0.99967509 179.96658 
2685.3444 0.99967639 179.96648 
2691.5348 0.99967769 179.96637 
2697.7394 0.99967899 179.96626 
2703.9584 0.99967853 179.96622 
2710.1916 0.99967748 179.96621 
2716.4393 0.99967644 179.96619 
2722.7013 0.99967539 179.96618 
2728.9778 0.99967434 179.96616 
2735.2687 0.99967328 179.96615 
2741.5742 0.99967319 179.9661 
2747.8942 0.99967406 179.96601 
2754.2287 0.99967494 179.96593 
2760.5779 0.99967582 179.96584 
2766.9416 0.9996767 179.96576 
2773.3201 0.99967758 179.96567 
2779.7133 0.99967784 179.9656 
2786.1212 0.99967624 179.96555 
2792.5438 0.99967464 179.9655 
2798.9813 0.99967303 179.96546 
2805.4336 0.99967141 179.96541 
2811.9008 0.9996698 179.96536 
2818.3829 0.99966818 179.96532 
2824.88 0.99966917 179.96513 
2831.392 0.99967017 179.96495 
2837.919 0.99967117 179.96476 
2844.4611 0.99967217 179.96458 
2851.0183 0.99967317 179.96439 
2857.5905 0.99967418 179.9642 
2864.178 0.99967496 179.96408 
2870.7806 0.99967566 179.96398 
2877.3984 0.99967637 179.96388 
2884.0315 0.99967708 179.96378 
2890.6799 0.99967779 179.96368 
2897.3436 0.9996785 179.96358 
2904.0227 0.99967801 179.9635 
2910.7171 0.99967631 179.96345 
2917.427 0.9996746 179.96339 
2924.1524 0.99967289 179.96334 
2930.8932 0.99967118 179.96328 
2937.6497 0.99966947 179.96322 
2944.4216 0.99966839 179.96316 
2951.2092 0.99966927 179.96307 
2958.0125 0.99967014 179.96297 
2964.8314 0.99967102 179.96288 
2971.666 0.9996719 179.96279 
2978.5164 0.99967278 179.96269 
2985.3826 0.99967367 179.9626 
2992.2646 0.99967359 179.96254 
2999.1625 0.99967352 179.96247 
3006.0763 0.99967345 179.9624 
3013.006 0.99967338 179.96234 
3019.9517 0.9996733 179.96227 
3026.9134 0.99967323 179.96221 
3033.8912 0.99967356 179.96211 
3040.885 0.99967402 179.962 
3047.895 0.99967448 179.96189 
3054.9211 0.99967494 179.96179 
3061.9634 0.99967541 179.96168 
3069.022 0.99967587 179.96157 
3076.0968 0.99967622 179.96148 
3083.188 0.99967644 179.96141 
3090.2954 0.99967666 179.96134 
3097.4193 0.99967687 179.96127 
3104.5596 0.99967709 179.9612 
3111.7163 0.99967732 179.96113 
3118.8896 0.99967742 179.96106 
3126.0794 0.99967718 179.961 
3133.2857 0.99967693 179.96094 
3140.5087 0.99967669 179.96088 
3147.7483 0.99967645 179.96082 
3155.0046 0.9996762 179.96075 
3162.2777 0.99967596 179.96069 
3169.5675 0.99967571 179.96049 
3176.8741 0.99967547 179.96029 
3184.1975 0.99967523 179.96009 
3191.5379 0.99967498 179.95988 
3198.8951 0.99967474 179.95968 
3206.2693 0.99967449 179.95948 
3213.6605 0.99967459 179.9594 
3221.0688 0.99967481 179.95937 
3228.4941 0.99967503 179.95933 
3235.9366 0.99967525 179.9593 
3243.3962 0.99967547 179.95926 
3250.873 0.99967569 179.95923 
3258.367 0.99967556 179.95918 
3265.8783 0.99967508 179.9591 
3273.4069 0.99967459 179.95902 
3280.9529 0.9996741 179.95895 
3288.5163 0.99967361 179.95887 
3296.0971 0.99967312 179.9588 
3303.6954 0.9996726 179.95872 
3311.3112 0.99967199 179.95863 
3318.9446 0.99967139 179.95855 
3326.5955 0.99967078 179.95846 
3334.2641 0.99967017 179.95838 
3341.9504 0.99966955 179.95829 
3349.6544 0.99966894 179.95821 
3357.3761 0.99966967 179.95812 
3365.1157 0.9996704 179.95804 
3372.8731 0.99967113 179.95795 
3380.6484 0.99967186 179.95787 
3388.4416 0.99967259 179.95778 
3396.2527 0.99967333 179.95769 
3404.0819 0.99967342 179.95759 
3411.9291 0.9996733 179.95748 
3419.7944 0.99967318 179.95736 
3427.6779 0.99967306 179.95725 
3435.5795 0.99967294 179.95714 
3443.4993 0.99967281 179.95703 
3451.4374 0.99967295 179.95691 
3459.3938 0.99967334 179.9568 
3467.3685 0.99967372 179.95669 
3475.3616 0.99967411 179.95658 
3483.3732 0.99967451 179.95647 
3491.4032 0.9996749 179.95635 
3499.4517 0.99967524 179.95622 
3507.5187 0.99967541 179.95602 
3515.6044 0.99967558 179.95582 
3523.7087 0.99967575 179.95562 
3531.8317 0.99967592 179.95542 
3539.9734 0.99967609 179.95522 
3548.1339 0.99967626 179.95502 
3556.3132 0.9996759 179.95506 
3564.5113 0.99967553 179.9551 
3572.7284 0.99967517 179.95514 
3580.9644 0.9996748 179.95518 
3589.2193 0.99967443 179.95522 
3597.4934 0.99967406 179.95527 
3605.7864 0.99967323 179.95518 
3614.0986 0.99967223 179.95506 
3622.43 0.99967123 179.95494 
3630.7805 0.99967023 179.95481 
3639.1504 0.99966923 179.95469 
3647.5395 0.99966822 179.95456 
3655.9479 0.99966814 179.95445 
3664.3757 0.99966899 179.95435 
3672.823 0.99966985 179.95424 
3681.2897 0.9996707 179.95414 
3689.776 0.99967155 179.95404 
3698.2818 0.99967241 179.95393 
3706.8072 0.99967346 179.95381 
3715.3523 0.99967506 179.95362 
3723.9171 0.99967667 179.95343 
3732.5016 0.99967827 179.95324 
3741.1059 0.99967989 179.95305 
3749.73 0.9996815 179.95286 
3758.374 0.99968313 179.95267 
3767.038 0.99968184 179.95255 
3775.7219 0.99968055 179.95243 
3784.4258 0.99967926 179.95231 
3793.1498 0.99967796 179.95219 
3801.894 0.99967667 179.95207 
3810.6582 0.99967537 179.95195 
3819.4427 0.99967471 179.95184 
3828.2474 0.99967428 179.95174 
3837.0725 0.99967384 179.95164 
3845.9178 0.9996734 179.95154 
3854.7836 0.99967296 179.95143 
3863.6698 0.99967252 179.95133 
3872.5764 0.99967226 179.95127 
3881.5037 0.99967219 179.95125 
3890.4514 0.99967211 179.95123 
3899.4199 0.99967204 179.95121 
3908.409 0.99967197 179.95119 
3917.4188 0.99967189 179.95117 
3926.4494 0.99967201 179.95111 
3935.5008 0.99967272 179.9509 
3944.573 0.99967342 179.9507 
3953.6662 0.99967413 179.95049 
3962.7803 0.99967484 179.95029 
3971.9155 0.99967555 179.95008 
3981.0717 0.99967626 179.94987 
3990.249 0.99967531 179.94978 
3999.4475 0.99967437 179.94968 
4008.6672 0.99967342 179.94958 
4017.9081 0.99967246 179.94949 
4027.1703 0.99967151 179.94939 
4036.4539 0.99967055 179.94929 
4045.7589 0.99966984 179.94922 
4055.0854 0.99966921 179.94917 
4064.4333 0.99966857 179.94912 
4073.8028 0.99966794 179.94906 
4083.1939 0.9996673 179.94901 
4092.6066 0.99966667 179.94896 
4102.041 0.99966658 179.94886 
4111.4972 0.99966704 179.94873 
4120.9752 0.9996675 179.9486 
4130.475 0.99966796 179.94847 
4139.9967 0.99966843 179.94834 
4149.5404 0.99966889 179.9482 
4159.1061 0.9996695 179.94808 
4168.6938 0.99967052 179.94796 
4178.3037 0.99967154 179.94785 
4187.9357 0.99967256 179.94773 
4197.5898 0.99967359 179.94762 
4207.2663 0.99967462 179.9475 
4216.965 0.99967565 179.94739 
4226.6861 0.99967495 179.94728 
4236.4297 0.99967424 179.94717 
4246.1956 0.99967354 179.94707 
4255.9841 0.99967283 179.94696 
4265.7952 0.99967212 179.94685 
4275.6289 0.99967141 179.94674 
4285.4852 0.9996709 179.94661 
4295.3643 0.99967046 179.94646 
4305.2661 0.99967002 179.94632 
4315.1908 0.99966958 179.94617 
4325.1383 0.99966914 179.94602 
4335.1088 0.9996687 179.94587 
4345.1022 0.99966934 179.94572 
4355.1187 0.99967107 179.94556 
4365.1583 0.99967279 179.94541 
4375.2211 0.99967453 179.94525 
4385.307 0.99967626 179.94509 
4395.4162 0.999678 179.94493 
4405.5486 0.99967886 179.94478 
4415.7045 0.99967704 179.94469 
4425.8837 0.99967521 179.94459 
4436.0864 0.99967338 179.94449 
4446.3127 0.99967155 179.94439 
4456.5625 0.99966971 179.9443 
4466.8359 0.99966787 179.9442 
4477.133 0.99966872 179.94405 
4487.4539 0.99966957 179.9439 
4497.7985 0.99967042 179.94375 
4508.167 0.99967128 179.94359 
4518.5594 0.99967214 179.94344 
4528.9758 0.999673 179.94329 
4539.4162 0.99967363 179.94321 
4549.8806 0.99967419 179.94315 
4560.3692 0.99967475 179.94309 
4570.8819 0.99967531 179.94302 
4581.4189 0.99967587 179.94296 
4591.9801 0.99967644 179.9429 
4602.5657 0.99967611 179.94281 
4613.1757 0.9996749 179.94268 
4623.8102 0.99967368 179.94256 
4634.4692 0.99967246 179.94243 
4645.1528 0.99967124 179.9423 
4655.8609 0.99967001 179.94217 
4666.5938 0.99966923 179.94204 
4677.3514 0.99966979 179.94191 
4688.1338 0.99967035 179.94178 
4698.9411 0.99967091 179.94165 
4709.7733 0.99967147 179.94152 
4720.6304 0.99967204 179.94139 
4731.5126 0.9996726 179.94125 
4742.4199 0.99967279 179.94104 
4753.3523 0.99967299 179.94082 
4764.3099 0.99967318 179.9406 
4775.2927 0.99967338 179.94039 
4786.3009 0.99967357 179.94017 
4797.3345 0.99967377 179.93995 
4808.3935 0.99967304 179.93982 
4819.478 0.99967199 179.93972 
4830.588 0.99967095 179.93962 
4841.7237 0.9996699 179.93952 
4852.885 0.99966884 179.93942 
4864.0721 0.99966779 179.93932 
4875.2849 0.99966748 179.9392 
4886.5236 0.99966792 179.93907 
4897.7882 0.99966835 179.93893 
4909.0788 0.99966879 179.93879 
4920.3954 0.99966923 179.93866 
4931.738 0.99966968 179.93852 
4943.1069 0.99966987 179.93836 
4954.5019 0.99966931 179.93814 
4965.9232 0.99966875 179.93792 
4977.3708 0.99966819 179.9377 
4988.8449 0.99966763 179.93748 
5000.3453 0.99966706 179.93726 
5011.8723 0.9996665 179.93704 
5023.4259 0.99966706 179.93698 
5035.0061 0.99966762 179.93692 
5046.613 0.99966818 179.93686 
5058.2466 0.99966874 179.9368 
5069.9071 0.9996693 179.93674 
5081.5944 0.99966987 179.93668 
5093.3087 0.99966953 179.93656 
5105.05 0.9996689 179.93644 
5116.8184 0.99966827 179.93631 
5128.6138 0.99966763 179.93618 
5140.4365 0.999667 179.93605 
5152.2864 0.99966636 179.93592 
5164.1637 0.99966604 179.93576 
5176.0683 0.99966604 179.93558 
5188.0004 0.99966604 179.93539 
5199.96 0.99966604 179.9352 
5211.9471 0.99966604 179.93502 
5223.9619 0.99966604 179.93483 
5236.0044 0.99966627 179.93465 
5248.0746 0.99966716 179.9345 
5260.1727 0.99966806 179.93435 
5272.2986 0.99966897 179.93419 
5284.4525 0.99966987 179.93404 
5296.6344 0.99967078 179.93389 
5308.8444 0.99967168 179.93373 
5321.0826 0.99967164 179.93357 
5333.349 0.99967159 179.93341 
5345.6436 0.99967154 179.93324 
5357.9666 0.99967149 179.93308 
5370.318 0.99967144 179.93291 
5382.6978 0.99967139 179.93275 
5395.1062 0.99967187 179.93263 
5407.5432 0.99967253 179.93253 
5420.0089 0.99967318 179.93243 
5432.5033 0.99967384 179.93233 
5445.0265 0.9996745 179.93222 
5457.5786 0.99967517 179.93212 
5470.1596 0.9996749 179.93197 
5482.7696 0.99967371 179.93178 
5495.4087 0.99967252 179.93159 
5508.077 0.99967133 179.9314 
5520.7744 0.99967013 179.93121 
5533.5011 0.99966893 179.93102 
5546.2571 0.99966817 179.93084 
5559.0426 0.99966875 179.93067 
5571.8575 0.99966934 179.9305 
5584.7019 0.99966992 179.93033 
5597.576 0.99967051 179.93016 
5610.4798 0.9996711 179.92999 
5623.4133 0.99967168 179.92982 
5636.3766 0.99967253 179.92962 
5649.3697 0.99967338 179.92942 
5662.3929 0.99967424 179.92921 
5675.4461 0.99967509 179.92901 
5688.5293 0.99967595 179.9288 
5701.6427 0.99967681 179.92859 
5714.7864 0.99967602 179.92848 
5727.9603 0.99967469 179.92839 
5741.1646 0.99967335 179.9283 
5754.3994 0.999672 179.92821 
5767.6646 0.99967066 179.92811 
5780.9605 0.99966931 179.92802 
5794.287 0.99966897 179.92787 
5807.6442 0.99966965 179.92767 
5821.0322 0.99967033 179.92746 
5834.451 0.99967102 179.92725 
5847.9008 0.9996717 179.92704 
5861.3816 0.99967239 179.92682 
5874.8935 0.99967284 179.92663 
5888.4366 0.9996726 179.92649 
5902.0108 0.99967236 179.92635 
5915.6163 0.99967211 179.92622 
5929.2532 0.99967187 179.92608 
5942.9216 0.99967163 179.92594 
5956.6214 0.99967138 179.9258 
5970.3529 0.99967138 179.92567 
5984.116 0.99967138 179.92553 
5997.9108 0.99967138 179.9254 
6011.7374 0.99967138 179.92527 
6025.5959 0.99967138 179.92514 
6039.4863 0.99967138 179.92501 
6053.4087 0.99967182 179.92475 
6067.3633 0.9996724 179.92445 
6081.35 0.99967298 179.92415 
6095.369 0.99967357 179.92385 
6109.4202 0.99967416 179.92355 
6123.5039 0.99967475 179.92325 
6137.6201 0.99967448 179.92304 
6151.7687 0.99967337 179.92292 
6165.95 0.99967225 179.9228 
6180.164 0.99967112 179.92269 
6194.4108 0.99967 179.92257 
6208.6903 0.99966887 179.92245 
6223.0029 0.99966815 179.92232 
6237.3484 0.99966866 179.92213 
6251.7269 0.99966917 179.92195 
6266.1386 0.99966968 179.92176 
6280.5836 0.9996702 179.92158 
6295.0618 0.99967071 179.92139 
6309.5734 0.99967123 179.9212 
6324.1185 0.99967166 179.92099 
6338.6971 0.9996721 179.92078 
6353.3093 0.99967254 179.92056 
6367.9552 0.99967298 179.92035 
6382.6349 0.99967342 179.92013 
6397.3484 0.99967386 179.91991 
6412.0958 0.99967341 179.91976 
6426.8772 0.99967266 179.91963 
6441.6927 0.9996719 179.9195 
6456.5423 0.99967114 179.91937 
6471.4262 0.99967039 179.91924 
6486.3443 0.99966962 179.9191 
6501.2969 0.99966884 179.91896 
6516.2839 0.99966804 179.91881 
6531.3055 0.99966724 179.91867 
6546.3617 0.99966643 179.91852 
6561.4527 0.99966563 179.91837 
6576.5784 0.99966482 179.91822 
6591.739 0.99966456 179.91805 
6606.9345 0.99966594 179.91784 
6622.165 0.99966733 179.91763 
6637.4307 0.99966872 179.91742 
6652.7316 0.99967011 179.91721 
6668.0677 0.99967151 179.91699 
6683.4392 0.99967291 179.91678 
6698.8461 0.99967135 179.91655 
6714.2885 0.9996698 179.91633 
6729.7666 0.99966824 179.9161 
6745.2803 0.99966667 179.91587 
6760.8298 0.99966511 179.91564 
6776.4151 0.99966354 179.91542 
6792.0363 0.99966387 179.9152 
6807.6936 0.99966484 179.91499 
6823.3869 0.99966582 179.91477 
6839.1165 0.99966679 179.91456 
6854.8823 0.99966777 179.91434 
6870.6844 0.99966875 179.91412 
6886.523 0.99966846 179.91393 
6902.398 0.99966688 179.91376 
6918.3097 0.9996653 179.91359 
6934.2581 0.99966371 179.91341 
6950.2432 0.99966212 179.91324 
6966.2651 0.99966053 179.91306 
6982.324 0.99965952 179.91288 
6998.42 0.9996603 179.91266 
7014.553 0.99966108 179.91245 
7030.7232 0.99966186 179.91223 
7046.9307 0.99966264 179.91201 
7063.1755 0.99966342 179.91179 
7079.4578 0.99966421 179.91158 
7095.7777 0.99966353 179.91136 
7112.1351 0.99966285 179.91115 
7128.5303 0.99966217 179.91094 
7144.9633 0.99966148 179.91073 
7161.4341 0.9996608 179.91051 
7177.9429 0.99966011 179.9103 
7194.4898 0.99966028 179.91012 
7211.0748 0.99966075 179.90995 
7227.698 0.99966121 179.90977 
7244.3596 0.99966167 179.9096 
7261.0596 0.99966214 179.90943 
7277.798 0.9996626 179.90925 
7294.5751 0.99966249 179.90906 
7311.3908 0.99966178 179.90885 
7328.2453 0.99966108 179.90864 
7345.1387 0.99966037 179.90843 
7362.071 0.99965966 179.90822 
7379.0423 0.99965895 179.90801 
7396.0528 0.99965851 179.90779 
7413.1024 0.9996589 179.90752 
7430.1914 0.99965929 179.90725 
7447.3197 0.99965968 179.90698 
7464.4876 0.99966007 179.90671 
7481.695 0.99966046 179.90644 
7498.9421 0.99966085 179.90617 
7516.2289 0.99966068 179.90598 
7533.5556 0.99966051 179.90579 
7550.9223 0.99966034 179.9056 
7568.329 0.99966017 179.90541 
7585.7758 0.99966 179.90522 
7603.2628 0.99965983 179.90503 
7620.7901 0.99965939 179.90482 
7638.3578 0.99965885 179.9046 
7655.9661 0.99965832 179.90438 
7673.6149 0.99965778 179.90416 
7691.3044 0.99965724 179.90394 
7709.0347 0.9996567 179.90372 
7726.8059 0.99965693 179.90351 
7744.618 0.99965792 179.9033 
7762.4712 0.99965892 179.90309 
7780.3655 0.99965992 179.90289 
7798.3011 0.99966092 179.90268 
7816.278 0.99966193 179.90247 
7834.2964 0.99966273 179.90226 
7852.3563 0.99966293 179.90205 
7870.4579 0.99966312 179.90184 
7888.6012 0.99966332 179.90163 
7906.7863 0.99966351 179.90142 
7925.0133 0.99966371 179.90121 
7943.2823 0.99966391 179.901 
7961.5935 0.99966357 179.90077 
7979.9469 0.99966323 179.90053 
7998.3426 0.99966288 179.90029 
8016.7806 0.99966254 179.90006 
8035.2612 0.9996622 179.89982 
8053.7844 0.99966186 179.89958 
8072.3503 0.99966266 179.8993 
8090.959 0.99966385 179.89901 
8109.6106 0.99966505 179.89872 
8128.3052 0.99966624 179.89843 
8147.0428 0.99966744 179.89813 
8165.8237 0.99966864 179.89784 
8184.6479 0.9996682 179.8976 
8203.5154 0.99966611 179.89741 
8222.4265 0.99966402 179.89722 
8241.3812 0.99966192 179.89703 
8260.3795 0.99965982 179.89685 
8279.4216 0.99965771 179.89666 
8298.5077 0.99965642 179.89644 
8317.6377 0.99965761 179.89614 
8336.8118 0.9996588 179.89584 
8356.0302 0.99966 179.89554 
8375.2928 0.9996612 179.89524 
8394.5999 0.9996624 179.89494 
8413.9514 0.9996636 179.89464 
8433.3476 0.99966275 179.8944 
8452.7885 0.9996619 179.89416 
8472.2741 0.99966105 179.89392 
8491.8048 0.99966019 179.89368 
8511.3804 0.99965934 179.89344 
8531.0011 0.99965848 179.8932 
8550.6671 0.9996585 179.89298 
8570.3785 0.99965881 179.89276 
8590.1352 0.99965913 179.89254 
8609.9375 0.99965945 179.89232 
8629.7855 0.99965977 179.8921 
8649.6792 0.99966008 179.89188 
8669.6188 0.99965966 179.89167 
8689.6043 0.9996585 179.89146 
8709.6359 0.99965733 179.89125 
8729.7137 0.99965616 179.89105 
8749.8378 0.99965498 179.89084 